64
 Atoms. Timestep: 0
1 -4.609 -4.609 -4.609
1 -2.3045 -2.3045 -4.609
1 -2.3045 -4.609 -2.3045
1 -4.609 -2.3045 -2.3045
1 0 -4.609 -4.609
1 2.3045 -2.3045 -4.609
1 2.3045 -4.609 -2.3045
1 0 -2.3045 -2.3045
1 -4.609 0 -4.609
1 -2.3045 2.3045 -4.609
1 -2.3045 0 -2.3045
1 -4.609 2.3045 -2.3045
1 0 0 -4.609
1 2.3045 2.3045 -4.609
1 2.3045 0 -2.3045
1 0 2.3045 -2.3045
1 -4.609 -4.609 0
1 -2.3045 -2.3045 0
1 -2.3045 -4.609 2.3045
1 -4.609 -2.3045 2.3045
1 0 -4.609 0
1 2.3045 -2.3045 0
1 2.3045 -4.609 2.3045
1 0 -2.3045 2.3045
1 -4.609 0 0
1 -2.3045 2.3045 0
1 -2.3045 0 2.3045
1 -4.609 2.3045 2.3045
1 0 0 0
1 2.3045 2.3045 0
1 2.3045 0 2.3045
1 0 2.3045 2.3045
2 -2.3045 -4.609 -4.609
2 -4.609 -2.3045 -4.609
2 2.3045 -4.609 -4.609
2 0 -2.3045 -4.609
2 -2.3045 0 -4.609
2 -4.609 2.3045 -4.609
2 2.3045 0 -4.609
2 0 2.3045 -4.609
2 -4.609 -4.609 -2.3045
2 -2.3045 -2.3045 -2.3045
2 -2.3045 -4.609 0
2 -4.609 -2.3045 0
2 0 -4.609 -2.3045
2 2.3045 -2.3045 -2.3045
2 2.3045 -4.609 0
2 0 -2.3045 0
2 -4.609 0 -2.3045
2 -2.3045 2.3045 -2.3045
2 -2.3045 0 0
2 -4.609 2.3045 0
2 0 0 -2.3045
2 2.3045 2.3045 -2.3045
2 2.3045 0 0
2 0 2.3045 0
2 -4.609 -4.609 2.3045
2 -2.3045 -2.3045 2.3045
2 0 -4.609 2.3045
2 2.3045 -2.3045 2.3045
2 -4.609 0 2.3045
2 -2.3045 2.3045 2.3045
2 0 0 2.3045
2 2.3045 2.3045 2.3045
64
 Atoms. Timestep: 1
1 -4.60946 -4.60946 -4.60946
1 -2.30473 -2.30473 -4.60946
1 -2.30473 -4.60946 -2.30473
1 -4.60946 -2.30473 -2.30473
1 0 -4.60946 -4.60946
1 2.30473 -2.30473 -4.60946
1 2.30473 -4.60946 -2.30473
1 0 -2.30473 -2.30473
1 -4.60946 0 -4.60946
1 -2.30473 2.30473 -4.60946
1 -2.30473 0 -2.30473
1 -4.60946 2.30473 -2.30473
1 0 0 -4.60946
1 2.30473 2.30473 -4.60946
1 2.30473 0 -2.30473
1 0 2.30473 -2.30473
1 -4.60946 -4.60946 0
1 -2.30473 -2.30473 0
1 -2.30473 -4.60946 2.30473
1 -4.60946 -2.30473 2.30473
1 0 -4.60946 0
1 2.30473 -2.30473 0
1 2.30473 -4.60946 2.30473
1 0 -2.30473 2.30473
1 -4.60946 0 0
1 -2.30473 2.30473 0
1 -2.30473 0 2.30473
1 -4.60946 2.30473 2.30473
1 0 0 0
1 2.30473 2.30473 0
1 2.30473 0 2.30473
1 0 2.30473 2.30473
2 -2.30473 -4.60946 -4.60946
2 -4.60946 -2.30473 -4.60946
2 2.30473 -4.60946 -4.60946
2 0 -2.30473 -4.60946
2 -2.30473 0 -4.60946
2 -4.60946 2.30473 -4.60946
2 2.30473 0 -4.60946
2 0 2.30473 -4.60946
2 -4.60946 -4.60946 -2.30473
2 -2.30473 -2.30473 -2.30473
2 -2.30473 -4.60946 0
2 -4.60946 -2.30473 0
2 0 -4.60946 -2.30473
2 2.30473 -2.30473 -2.30473
2 2.30473 -4.60946 0
2 0 -2.30473 0
2 -4.60946 0 -2.30473
2 -2.30473 2.30473 -2.30473
2 -2.30473 0 0
2 -4.60946 2.30473 0
2 0 0 -2.30473
2 2.30473 2.30473 -2.30473
2 2.30473 0 0
2 0 2.30473 0
2 -4.60946 -4.60946 2.30473
2 -2.30473 -2.30473 2.30473
2 0 -4.60946 2.30473
2 2.30473 -2.30473 2.30473
2 -4.60946 0 2.30473
2 -2.30473 2.30473 2.30473
2 0 0 2.30473
2 2.30473 2.30473 2.30473
64
 Atoms. Timestep: 2
1 -4.60992 -4.60992 -4.60992
1 -2.30496 -2.30496 -4.60992
1 -2.30496 -4.60992 -2.30496
1 -4.60992 -2.30496 -2.30496
1 0 -4.60992 -4.60992
1 2.30496 -2.30496 -4.60992
1 2.30496 -4.60992 -2.30496
1 0 -2.30496 -2.30496
1 -4.60992 0 -4.60992
1 -2.30496 2.30496 -4.60992
1 -2.30496 0 -2.30496
1 -4.60992 2.30496 -2.30496
1 0 0 -4.60992
1 2.30496 2.30496 -4.60992
1 2.30496 0 -2.30496
1 0 2.30496 -2.30496
1 -4.60992 -4.60992 0
1 -2.30496 -2.30496 0
1 -2.30496 -4.60992 2.30496
1 -4.60992 -2.30496 2.30496
1 0 -4.60992 0
1 2.30496 -2.30496 0
1 2.30496 -4.60992 2.30496
1 0 -2.30496 2.30496
1 -4.60992 0 0
1 -2.30496 2.30496 0
1 -2.30496 0 2.30496
1 -4.60992 2.30496 2.30496
1 0 0 0
1 2.30496 2.30496 0
1 2.30496 0 2.30496
1 0 2.30496 2.30496
2 -2.30496 -4.60992 -4.60992
2 -4.60992 -2.30496 -4.60992
2 2.30496 -4.60992 -4.60992
2 0 -2.30496 -4.60992
2 -2.30496 0 -4.60992
2 -4.60992 2.30496 -4.60992
2 2.30496 0 -4.60992
2 0 2.30496 -4.60992
2 -4.60992 -4.60992 -2.30496
2 -2.30496 -2.30496 -2.30496
2 -2.30496 -4.60992 0
2 -4.60992 -2.30496 0
2 0 -4.60992 -2.30496
2 2.30496 -2.30496 -2.30496
2 2.30496 -4.60992 0
2 0 -2.30496 0
2 -4.60992 0 -2.30496
2 -2.30496 2.30496 -2.30496
2 -2.30496 0 0
2 -4.60992 2.30496 0
2 0 0 -2.30496
2 2.30496 2.30496 -2.30496
2 2.30496 0 0
2 0 2.30496 0
2 -4.60992 -4.60992 2.30496
2 -2.30496 -2.30496 2.30496
2 0 -4.60992 2.30496
2 2.30496 -2.30496 2.30496
2 -4.60992 0 2.30496
2 -2.30496 2.30496 2.30496
2 0 0 2.30496
2 2.30496 2.30496 2.30496
64
 Atoms. Timestep: 3
1 -4.61 -4.61 -4.61
1 -2.305 -2.305 -4.61
1 -2.305 -4.61 -2.305
1 -4.61 -2.305 -2.305
1 0 -4.61 -4.61
1 2.305 -2.305 -4.61
1 2.305 -4.61 -2.305
1 0 -2.305 -2.305
1 -4.61 0 -4.61
1 -2.305 2.305 -4.61
1 -2.305 0 -2.305
1 -4.61 2.305 -2.305
1 0 0 -4.61
1 2.305 2.305 -4.61
1 2.305 0 -2.305
1 0 2.305 -2.305
1 -4.61 -4.61 0
1 -2.305 -2.305 0
1 -2.305 -4.61 2.305
1 -4.61 -2.305 2.305
1 0 -4.61 0
1 2.305 -2.305 0
1 2.305 -4.61 2.305
1 0 -2.305 2.305
1 -4.61 0 0
1 -2.305 2.305 0
1 -2.305 0 2.305
1 -4.61 2.305 2.305
1 0 0 0
1 2.305 2.305 0
1 2.305 0 2.305
1 0 2.305 2.305
2 -2.305 -4.61 -4.61
2 -4.61 -2.305 -4.61
2 2.305 -4.61 -4.61
2 0 -2.305 -4.61
2 -2.305 0 -4.61
2 -4.61 2.305 -4.61
2 2.305 0 -4.61
2 0 2.305 -4.61
2 -4.61 -4.61 -2.305
2 -2.305 -2.305 -2.305
2 -2.305 -4.61 0
2 -4.61 -2.305 0
2 0 -4.61 -2.305
2 2.305 -2.305 -2.305
2 2.305 -4.61 0
2 0 -2.305 0
2 -4.61 0 -2.305
2 -2.305 2.305 -2.305
2 -2.305 0 0
2 -4.61 2.305 0
2 0 0 -2.305
2 2.305 2.305 -2.305
2 2.305 0 0
2 0 2.305 0
2 -4.61 -4.61 2.305
2 -2.305 -2.305 2.305
2 0 -4.61 2.305
2 2.305 -2.305 2.305
2 -4.61 0 2.305
2 -2.305 2.305 2.305
2 0 0 2.305
2 2.305 2.305 2.305
64
 Atoms. Timestep: 4
1 -4.61 -4.61 -4.61
1 -2.305 -2.305 -4.61
1 -2.305 -4.61 -2.305
1 -4.61 -2.305 -2.305
1 1.5958e-18 -4.61 -4.61
1 2.305 -2.305 -4.61
1 2.305 -4.61 -2.305
1 1.50782e-18 -2.305 -2.305
1 -4.61 1.5958e-18 -4.61
1 -2.305 2.305 -4.61
1 -2.305 1.50782e-18 -2.305
1 -4.61 2.305 -2.305
1 1.50782e-18 1.50782e-18 -4.61
1 2.305 2.305 -4.61
1 2.305 1.50782e-18 -2.305
1 1.50782e-18 2.305 -2.305
1 -4.61 -4.61 1.6134e-18
1 -2.305 -2.305 1.50782e-18
1 -2.305 -4.61 2.305
1 -4.61 -2.305 2.305
1 1.50782e-18 -4.61 1.50782e-18
1 2.305 -2.305 1.50782e-18
1 2.305 -4.61 2.305
1 1.50782e-18 -2.305 2.305
1 -4.61 1.56061e-18 1.56061e-18
1 -2.305 2.305 1.50782e-18
1 -2.305 1.50782e-18 2.305
1 -4.61 2.305 2.305
1 1.5958e-18 1.5958e-18 1.5958e-18
1 2.305 2.305 1.49022e-18
1 2.305 1.49022e-18 2.305
1 1.49022e-18 2.305 2.305
2 -2.305 -4.61 -4.61
2 -4.61 -2.305 -4.61
2 2.305 -4.61 -4.61
2 1.39551e-18 -2.305 -4.61
2 -2.305 1.39551e-18 -4.61
2 -4.61 2.305 -4.61
2 2.305 1.37792e-18 -4.61
2 1.37792e-18 2.305 -4.61
2 -4.61 -4.61 -2.305
2 -2.305 -2.305 -2.305
2 -2.305 -4.61 1.39551e-18
2 -4.61 -2.305 1.53628e-18
2 1.39551e-18 -4.61 -2.305
2 2.305 -2.305 -2.305
2 2.305 -4.61 1.37792e-18
2 1.41311e-18 -2.305 1.41311e-18
2 -4.61 1.53628e-18 -2.305
2 -2.305 2.305 -2.305
2 -2.305 1.41311e-18 1.41311e-18
2 -4.61 2.305 1.51869e-18
2 1.41311e-18 1.41311e-18 -2.305
2 2.305 2.305 -2.305
2 2.305 1.48349e-18 1.48349e-18
2 1.48349e-18 2.305 1.48349e-18
2 -4.61 -4.61 2.305
2 -2.305 -2.305 2.305
2 1.37792e-18 -4.61 2.305
2 2.305 -2.305 2.305
2 -4.61 1.51869e-18 2.305
2 -2.305 2.305 2.305
2 1.48349e-18 1.48349e-18 2.305
2 2.305 2.305 2.305
64
 Atoms. Timestep: 5
1 -4.61 -4.61 -4.61
1 -2.305 -2.305 -4.61
1 -2.305 -4.61 -2.305
1 -4.61 -2.305 -2.305
1 2.77028e-23 -4.61 -4.61
1 2.305 -2.305 -4.61
1 2.305 -4.61 -2.305
1 2.13893e-23 -2.305 -2.305
1 -4.61 1.93547e-23 -4.61
1 -2.305 2.305 -4.61
1 -2.305 1.44073e-23 -2.305
1 -4.61 2.305 -2.305
1 4.38634e-23 4.47023e-23 -4.61
1 2.305 2.305 -4.61
1 2.305 7.43853e-24 -2.305
1 1.51933e-23 2.305 -2.305
1 -4.61 -4.61 2.21159e-23
1 -2.305 -2.305 1.62414e-23
1 -2.305 -4.61 2.305
1 -4.61 -2.305 2.305
1 4.38634e-23 -4.61 4.94123e-23
1 2.305 -2.305 8.62966e-24
1 2.305 -4.61 2.305
1 1.51933e-23 -2.305 2.305
1 -4.61 2.98958e-23 3.3236e-23
1 -2.305 2.305 9.9481e-24
1 -2.305 8.02944e-24 2.305
1 -4.61 2.305 2.305
1 1.67146e-23 2.46599e-23 2.55272e-23
1 2.305 2.305 8.89977e-24
1 2.305 7.85126e-24 2.305
1 1.57879e-23 2.305 2.305
2 -2.305 -4.61 -4.61
2 -4.61 -2.305 -4.61
2 2.305 -4.61 -4.61
2 -3.04768e-23 -2.305 -4.61
2 -2.305 -3.023e-23 -4.61
2 -4.61 2.305 -4.61
2 2.305 -2.95268e-23 -4.61
2 -2.98871e-23 2.305 -4.61
2 -4.61 -4.61 -2.305
2 -2.305 -2.305 -2.305
2 -2.305 -4.61 -3.61749e-23
2 -4.61 -2.305 -3.74364e-24
2 -3.04768e-23 -4.61 -2.305
2 2.305 -2.305 -2.305
2 2.305 -4.61 -3.5548e-23
2 -2.70097e-23 -2.305 -3.08173e-23
2 -4.61 -2.42082e-24 -2.305
2 -2.305 2.305 -2.305
2 -2.305 -3.12193e-23 -3.49867e-23
2 -4.61 2.305 -5.41293e-24
2 -2.70097e-23 -3.09871e-23 -2.305
2 2.305 2.305 -2.305
2 2.305 -1.43938e-23 -1.46e-23
2 -1.24804e-23 2.305 -1.27268e-23
2 -4.61 -4.61 2.305
2 -2.305 -2.305 2.305
2 -2.98871e-23 -4.61 2.305
2 2.305 -2.305 2.305
2 -4.61 -4.74122e-24 2.305
2 -2.305 2.305 2.305
2 -1.24804e-23 -1.28201e-23 2.305
2 2.305 2.305 2.305
