ITEM: TIMESTEP
1
ITEM: NUMBER OF ATOMS
64
ITEM: BOX BOUNDS pp pp pp
0.0000000000000000e+00 9.2219999999999995e+00
0.0000000000000000e+00 9.2219999999999995e+00
0.0000000000000000e+00 9.2219999999999995e+00
ITEM: ATOMS id element type xs ys zs c_csym c_eng
1 Zr 1 -9.19932e-18 -1.03492e-17 -1.09242e-17 10.6307 -8.24634
2 Zr 1 0.25 0.25 -4.59966e-18 10.6307 -8.24634
3 Zr 1 0.25 -9.19932e-18 0.25 10.6307 -8.24634
4 Zr 1 -8.0494e-18 0.25 0.25 10.6307 -8.24634
33 N 2 0.25 -6.89949e-18 -6.32453e-18 10.6307 -6.52765
34 N 2 -8.0494e-18 0.25 -6.32453e-18 15.946 -6.52765
41 N 2 -1.12117e-17 -9.77427e-18 0.25 15.946 -6.52765
42 N 2 0.25 0.25 0.25 5.31533 -6.52765
5 Zr 1 0.5 -5.74957e-18 -9.19932e-18 10.6307 -8.24634
6 Zr 1 0.75 0.25 -1.00618e-17 15.946 -8.24634
7 Zr 1 0.75 -1.03492e-17 0.25 15.946 -8.24634
8 Zr 1 0.5 0.25 0.25 10.6307 -8.24634
35 N 2 0.75 -5.17462e-18 -5.74957e-18 15.946 -6.52765
36 N 2 0.5 0.25 -9.19932e-18 10.6307 -6.52765
45 N 2 0.5 -9.77427e-18 0.25 5.31533 -6.52765
46 N 2 0.75 0.25 0.25 10.6307 -6.52765
9 Zr 1 -6.89949e-18 0.5 -9.48679e-18 5.31533 -8.24634
10 Zr 1 0.25 0.75 -1.00618e-17 15.946 -8.24634
11 Zr 1 0.25 0.5 0.25 10.6307 -8.24634
12 Zr 1 -6.89949e-18 0.75 0.25 15.946 -8.24634
37 N 2 0.25 0.5 -9.19932e-18 5.31533 -6.52765
38 N 2 -6.61201e-18 0.75 -3.44974e-18 10.6307 -6.52765
49 N 2 -8.91184e-18 0.5 0.25 10.6307 -6.52765
50 N 2 0.25 0.75 0.25 15.946 -6.52765
13 Zr 1 0.5 0.5 -1.14991e-17 10.6307 -8.24634
14 Zr 1 0.75 0.75 -1.03492e-17 10.6307 -8.24634
15 Zr 1 0.75 0.5 0.25 15.946 -8.24634
16 Zr 1 0.5 0.75 0.25 10.6307 -8.24634
39 N 2 0.75 0.5 -7.47444e-18 10.6307 -6.52765
40 N 2 0.5 0.75 -8.62436e-18 15.946 -6.52765
53 N 2 0.5 0.5 0.25 10.6307 -6.52765
54 N 2 0.75 0.75 0.25 10.6307 -6.52765
17 Zr 1 -1.14991e-17 -9.48679e-18 0.5 10.6307 -8.24634
18 Zr 1 0.25 0.25 0.5 10.6307 -8.24634
19 Zr 1 0.25 -1.14991e-17 0.75 15.946 -8.24634
20 Zr 1 -1.03492e-17 0.25 0.75 15.946 -8.24634
43 N 2 0.25 -7.47444e-18 0.5 10.6307 -6.52765
44 N 2 -8.91184e-18 0.25 0.5 10.6307 -6.52765
57 N 2 -7.76192e-18 -5.17462e-18 0.75 10.6307 -6.52765
58 N 2 0.25 0.25 0.75 10.6307 -6.52765
21 Zr 1 0.5 -1.3799e-17 0.5 10.6307 -8.24634
22 Zr 1 0.75 0.25 0.5 10.6307 -8.24634
23 Zr 1 0.75 -1.03492e-17 0.75 15.946 -8.24634
24 Zr 1 0.5 0.25 0.75 10.6307 -8.24634
47 N 2 0.75 -8.62436e-18 0.5 15.946 -6.52765
48 N 2 0.5 0.25 0.5 10.6307 -6.52765
59 N 2 0.5 -7.47444e-18 0.75 15.946 -6.52765
60 N 2 0.75 0.25 0.75 10.6307 -6.52765
25 Zr 1 -1.26491e-17 0.5 0.5 10.6307 -8.24634
26 Zr 1 0.25 0.75 0.5 15.946 -8.24634
27 Zr 1 0.25 0.5 0.75 10.6307 -8.24634
28 Zr 1 -8.0494e-18 0.75 0.75 15.946 -8.24634
51 N 2 0.25 0.5 0.5 15.946 -6.52765
52 N 2 -6.89949e-18 0.75 0.5 15.946 -6.52765
61 N 2 -8.0494e-18 0.5 0.75 10.6307 -6.52765
62 N 2 0.25 0.75 0.75 15.946 -6.52765
29 Zr 1 0.5 0.5 0.5 15.946 -8.24634
30 Zr 1 0.75 0.75 0.5 10.6307 -8.24634
31 Zr 1 0.75 0.5 0.75 10.6307 -8.24634
32 Zr 1 0.5 0.75 0.75 10.6307 -8.24634
55 N 2 0.75 0.5 0.5 10.6307 -6.52765
56 N 2 0.5 0.75 0.5 10.6307 -6.52765
63 N 2 0.5 0.5 0.75 10.6307 -6.52765
64 N 2 0.75 0.75 0.75 10.6307 -6.52765
