ITEM: TIMESTEP
21
ITEM: NUMBER OF ATOMS
511
ITEM: BOX BOUNDS pp pp pp
0.0000000000000000e+00 1.8440000000000001e+01
0.0000000000000000e+00 1.8440000000000001e+01
0.0000000000000000e+00 1.8440000000000001e+01
ITEM: ATOMS id type element xs ys zs c_csym c_eng
2 1 Zr 0.125142 0.125142 -3.10046e-17 5.17503 -8.2639
3 1 Zr 0.125142 -3.35707e-17 0.125142 5.17503 -8.2639
4 1 Zr 4.00468e-18 0.125142 0.125142 5.17503 -8.2639
5 2 N 0.135804 -4.69004e-17 -2.66237e-17 11.671 -6.36629
6 2 N 7.33202e-18 0.135804 -7.15517e-17 11.671 -6.36629
7 2 N 3.4742e-18 -4.4643e-17 0.135804 11.671 -6.36629
8 2 N 0.122917 0.122917 0.122917 10.0196 -6.55406
9 1 Zr 0.253113 -6.35526e-18 -3.12093e-17 14.7363 -8.3173
10 1 Zr 0.375375 0.125177 -3.86907e-17 10.3525 -8.25805
11 1 Zr 0.375375 -3.21669e-17 0.125177 10.3525 -8.25805
12 1 Zr 0.249479 0.124865 0.124865 10.3251 -8.22375
13 2 N 0.375931 -2.71743e-17 -3.31335e-17 10.3773 -6.53907
14 2 N 0.250946 0.125786 -2.43779e-17 9.70017 -6.47325
15 2 N 0.250946 9.84881e-19 0.125786 9.70017 -6.47325
16 2 N 0.375009 0.125046 0.125046 10.483 -6.51426
17 1 Zr 0.5 6.24987e-18 -5.30799e-18 5.28119 -8.26629
18 1 Zr 0.5 0.125034 0.125034 10.5625 -8.2482
19 2 N 0.5 0.12516 -5.54036e-17 5.23463 -6.52232
20 2 N 0.5 -3.07295e-17 0.12516 5.23463 -6.52232
21 1 Zr 0.624625 0.125177 -3.70457e-17 10.3525 -8.25805
22 1 Zr 0.624625 -3.4968e-17 0.125177 10.3525 -8.25805
23 1 Zr 0.746887 5.83486e-18 -2.47112e-17 14.7363 -8.3173
24 1 Zr 0.750521 0.124865 0.124865 10.3251 -8.22375
25 2 N 0.624069 -2.12736e-17 -2.41166e-17 15.5635 -6.53907
26 2 N 0.749054 0.125786 -3.21826e-18 9.70017 -6.47325
27 2 N 0.624991 0.125046 0.125046 10.483 -6.51426
28 2 N 0.749054 1.86093e-17 0.125786 9.70017 -6.47325
29 1 Zr 0.874858 0.125142 -3.55733e-17 5.17503 -8.2639
30 1 Zr 0.874858 -3.19554e-17 0.125142 5.17503 -8.2639
31 2 N 0.864196 -3.384e-17 -7.8335e-17 11.671 -6.36629
32 2 N 0.877083 0.122917 0.122917 14.9615 -6.55406
33 1 Zr -2.40184e-18 0.253113 -1.56004e-17 14.7363 -8.3173
34 1 Zr 0.125177 0.375375 -3.33544e-17 10.3525 -8.25805
35 1 Zr 0.124865 0.249479 0.124865 10.3251 -8.22375
36 1 Zr -2.71187e-17 0.375375 0.125177 10.3525 -8.25805
37 2 N 0.125786 0.250946 -2.75843e-17 9.70017 -6.47325
38 2 N -3.30977e-17 0.375931 -3.26481e-17 15.5635 -6.53907
39 2 N 2.46288e-17 0.250946 0.125786 9.70017 -6.47325
40 2 N 0.125046 0.375009 0.125046 10.483 -6.51426
41 1 Zr 0.250375 0.250375 -3.48281e-17 15.6622 -8.26496
42 1 Zr 0.375098 0.375098 -1.6026e-17 5.29107 -8.25418
43 1 Zr 0.374922 0.249982 0.12502 10.557 -8.2458
44 1 Zr 0.249982 0.374922 0.12502 10.557 -8.2458
45 2 N 0.375169 0.250215 -3.89966e-17 10.5257 -6.5217
46 2 N 0.250215 0.375169 -3.03825e-17 10.5257 -6.5217
47 2 N 0.249729 0.249729 0.125064 10.4048 -6.53395
48 2 N 0.374971 0.374971 0.125033 10.5797 -6.52531
49 1 Zr 0.5 0.250129 -7.31695e-18 5.28126 -8.25387
50 1 Zr 0.5 0.375004 0.125019 10.6072 -8.24814
51 2 N 0.5 0.37508 -1.48289e-17 5.2987 -6.52382
52 2 N 0.5 0.250028 0.125037 10.5974 -6.52187
53 1 Zr 0.624902 0.375098 5.97004e-19 5.29107 -8.25418
54 1 Zr 0.625078 0.249982 0.12502 10.557 -8.2458
55 1 Zr 0.749625 0.250375 -6.48125e-18 15.6622 -8.26496
56 1 Zr 0.750018 0.374922 0.12502 10.557 -8.2458
57 2 N 0.624831 0.250215 -4.22013e-18 10.5257 -6.5217
58 2 N 0.749785 0.375169 -3.58497e-18 10.5257 -6.5217
59 2 N 0.625029 0.374971 0.125033 10.5797 -6.52531
60 2 N 0.750271 0.249729 0.125064 10.4048 -6.53395
61 1 Zr 0.874823 0.375375 -4.5287e-17 10.3525 -8.25805
62 1 Zr 0.875135 0.249479 0.124865 10.3251 -8.22375
63 2 N 0.874214 0.250946 -1.90238e-17 9.70017 -6.47325
64 2 N 0.874954 0.375009 0.125046 10.483 -6.51426
65 1 Zr 1.48597e-18 0.5 -3.98448e-18 5.28119 -8.26629
66 1 Zr 0.125034 0.5 0.125034 10.5625 -8.2482
67 2 N 0.12516 0.5 -4.24772e-17 5.23463 -6.52232
68 2 N 1.27092e-18 0.5 0.12516 5.23463 -6.52232
69 1 Zr 0.250129 0.5 -1.52056e-17 5.28126 -8.25387
70 1 Zr 0.375004 0.5 0.125019 10.6072 -8.24814
71 2 N 0.37508 0.5 -1.56383e-17 5.2987 -6.52382
72 2 N 0.250028 0.5 0.125037 10.5974 -6.52187
73 1 Zr 0.5 0.5 4.3727e-18 5.30471 -8.25272
74 2 N 0.5 0.5 0.125027 5.30624 -6.52497
75 1 Zr 0.624996 0.5 0.125019 10.6072 -8.24814
76 1 Zr 0.749871 0.5 1.35081e-17 5.28126 -8.25387
77 2 N 0.62492 0.5 2.27896e-17 5.2987 -6.52382
78 2 N 0.749972 0.5 0.125037 10.5974 -6.52187
79 1 Zr 0.874966 0.5 0.125034 10.5625 -8.2482
80 2 N 0.87484 0.5 -3.30562e-17 5.23463 -6.52232
81 1 Zr 0.125177 0.624625 -4.996e-17 10.3525 -8.25805
82 1 Zr 5.17717e-17 0.624625 0.125177 10.3525 -8.25805
83 1 Zr 4.91696e-18 0.746887 -2.20357e-17 14.7363 -8.3173
84 1 Zr 0.124865 0.750521 0.124865 10.3251 -8.22375
85 2 N 2.29862e-18 0.624069 -5.54247e-17 15.5635 -6.53907
86 2 N 0.125786 0.749054 -1.29962e-17 9.70017 -6.47325
87 2 N 0.125046 0.624991 0.125046 10.483 -6.51426
88 2 N 5.06508e-17 0.749054 0.125786 9.70017 -6.47325
89 1 Zr 0.375098 0.624902 1.78107e-17 5.29107 -8.25418
90 1 Zr 0.249982 0.625078 0.12502 10.557 -8.2458
91 1 Zr 0.250375 0.749625 -2.18123e-17 15.6622 -8.26496
92 1 Zr 0.374922 0.750018 0.12502 10.557 -8.2458
93 2 N 0.250215 0.624831 -2.19586e-17 10.5257 -6.5217
94 2 N 0.375169 0.749785 -3.89537e-18 10.5257 -6.5217
95 2 N 0.374971 0.625029 0.125033 10.5797 -6.52531
96 2 N 0.249729 0.750271 0.125064 10.4048 -6.53395
97 1 Zr 0.5 0.624996 0.125019 10.6072 -8.24814
98 1 Zr 0.5 0.749871 1.041e-17 5.28126 -8.25387
99 2 N 0.5 0.62492 2.14197e-17 5.2987 -6.52382
100 2 N 0.5 0.749972 0.125037 10.5974 -6.52187
101 1 Zr 0.624902 0.624902 9.63379e-18 5.29107 -8.25418
102 1 Zr 0.750018 0.625078 0.12502 10.557 -8.2458
103 1 Zr 0.625078 0.750018 0.12502 10.557 -8.2458
104 1 Zr 0.749625 0.749625 -1.96805e-17 15.6622 -8.26496
105 2 N 0.749785 0.624831 1.63652e-17 10.5257 -6.5217
106 2 N 0.624831 0.749785 -1.49116e-17 10.5257 -6.5217
107 2 N 0.625029 0.625029 0.125033 10.5797 -6.52531
108 2 N 0.750271 0.750271 0.125064 10.4048 -6.53395
109 1 Zr 0.874823 0.624625 -4.92498e-17 10.3525 -8.25805
110 1 Zr 0.875135 0.750521 0.124865 10.3251 -8.22375
111 2 N 0.874214 0.749054 -1.94468e-17 9.70017 -6.47325
112 2 N 0.874954 0.624991 0.125046 10.483 -6.51426
113 1 Zr 0.125142 0.874858 -3.5156e-17 5.17503 -8.2639
114 1 Zr 1.17235e-17 0.874858 0.125142 5.17503 -8.2639
115 2 N 1.01869e-17 0.864196 -8.74322e-17 11.671 -6.36629
116 2 N 0.122917 0.877083 0.122917 14.9615 -6.55406
117 1 Zr 0.375375 0.874823 -4.74891e-17 10.3525 -8.25805
118 1 Zr 0.249479 0.875135 0.124865 10.3251 -8.22375
119 2 N 0.250946 0.874214 -1.86571e-17 9.70017 -6.47325
120 2 N 0.375009 0.874954 0.125046 10.483 -6.51426
121 1 Zr 0.5 0.874966 0.125034 10.5625 -8.2482
122 2 N 0.5 0.87484 -3.85549e-17 5.23463 -6.52232
123 1 Zr 0.624625 0.874823 -3.5208e-17 10.3525 -8.25805
124 1 Zr 0.750521 0.875135 0.124865 10.3251 -8.22375
125 2 N 0.749054 0.874214 -2.4452e-17 9.70017 -6.47325
126 2 N 0.624991 0.874954 0.125046 10.483 -6.51426
127 1 Zr 0.874858 0.874858 -5.23812e-17 5.17503 -8.2639
128 2 N 0.877083 0.877083 0.122917 14.9615 -6.55406
129 1 Zr 7.55701e-18 -1.12325e-17 0.253113 14.7363 -8.3173
130 1 Zr 0.124865 0.124865 0.249479 10.3251 -8.22375
131 1 Zr 0.125177 -3.41654e-17 0.375375 10.3525 -8.25805
132 1 Zr 6.49309e-17 0.125177 0.375375 10.3525 -8.25805
133 2 N 0.125786 -6.02355e-18 0.250946 9.70017 -6.47325
134 2 N 4.45345e-17 0.125786 0.250946 9.70017 -6.47325
135 2 N 4.14066e-17 -1.44935e-17 0.375931 15.5635 -6.53907
136 2 N 0.125046 0.125046 0.375009 10.483 -6.51426
137 1 Zr 0.250375 1.57862e-17 0.250375 15.6622 -8.26496
138 1 Zr 0.374922 0.12502 0.249982 10.557 -8.2458
139 1 Zr 0.375098 -7.50057e-19 0.375098 5.29107 -8.25418
140 1 Zr 0.249982 0.12502 0.374922 10.557 -8.2458
141 2 N 0.375169 1.88482e-17 0.250215 10.5257 -6.5217
142 2 N 0.249729 0.125064 0.249729 10.4048 -6.53395
143 2 N 0.250215 1.2303e-18 0.375169 10.5257 -6.5217
144 2 N 0.374971 0.125033 0.374971 10.5797 -6.52531
145 1 Zr 0.5 1.90187e-17 0.250129 5.28126 -8.25387
146 1 Zr 0.5 0.125019 0.375004 10.6072 -8.24814
147 2 N 0.5 0.125037 0.250028 10.5974 -6.52187
148 2 N 0.5 -2.06385e-18 0.37508 5.2987 -6.52382
149 1 Zr 0.625078 0.12502 0.249982 10.557 -8.2458
150 1 Zr 0.624902 1.74603e-18 0.375098 5.29107 -8.25418
151 1 Zr 0.749625 1.83986e-17 0.250375 15.6622 -8.26496
152 1 Zr 0.750018 0.12502 0.374922 10.557 -8.2458
153 2 N 0.624831 1.4391e-17 0.250215 10.5257 -6.5217
154 2 N 0.750271 0.125064 0.249729 10.4048 -6.53395
155 2 N 0.625029 0.125033 0.374971 10.5797 -6.52531
156 2 N 0.749785 -3.2897e-17 0.375169 10.5257 -6.5217
157 1 Zr 0.875135 0.124865 0.249479 10.3251 -8.22375
158 1 Zr 0.874823 -3.89846e-17 0.375375 10.3525 -8.25805
159 2 N 0.874214 -3.79817e-18 0.250946 9.70017 -6.47325
160 2 N 0.874954 0.125046 0.375009 10.483 -6.51426
161 1 Zr 3.8304e-17 0.250375 0.250375 15.6622 -8.26496
162 1 Zr 0.12502 0.374922 0.249982 10.557 -8.2458
163 1 Zr 0.12502 0.249982 0.374922 10.557 -8.2458
164 1 Zr 3.85891e-17 0.375098 0.375098 5.29107 -8.25418
165 2 N 0.125064 0.249729 0.249729 10.4048 -6.53395
166 2 N 2.67707e-17 0.375169 0.250215 10.5257 -6.5217
167 2 N 8.15247e-17 0.250215 0.375169 10.5257 -6.5217
168 2 N 0.125033 0.374971 0.374971 10.5797 -6.52531
169 1 Zr 0.249995 0.249995 0.249995 0.000144285 -8.25311
170 1 Zr 0.375 0.375 0.250011 1.44816e-06 -8.24925
171 1 Zr 0.375 0.250011 0.375 1.44816e-06 -8.24925
172 1 Zr 0.250011 0.375 0.375 1.44816e-06 -8.24925
173 2 N 0.374966 0.250001 0.250001 5.30832 -6.52581
174 2 N 0.250001 0.374966 0.250001 5.30832 -6.52581
175 2 N 0.250001 0.250001 0.374966 5.30832 -6.52581
176 2 N 0.375004 0.375004 0.375004 8.26554e-08 -6.52501
177 1 Zr 0.5 0.250015 0.250015 5.3106 -8.24879
178 1 Zr 0.5 0.375005 0.375005 10.6244 -8.24925
179 2 N 0.5 0.375003 0.250012 5.31072 -6.52516
180 2 N 0.5 0.250012 0.375003 5.31072 -6.52516
181 1 Zr 0.625 0.375 0.250011 1.44816e-06 -8.24925
182 1 Zr 0.625 0.250011 0.375 1.44816e-06 -8.24925
183 1 Zr 0.750005 0.249995 0.249995 0.000144285 -8.25311
184 1 Zr 0.749989 0.375 0.375 1.44816e-06 -8.24925
185 2 N 0.625034 0.250001 0.250001 5.30832 -6.52581
186 2 N 0.749999 0.374966 0.250001 5.30832 -6.52581
187 2 N 0.624996 0.375004 0.375004 8.26554e-08 -6.52501
188 2 N 0.749999 0.250001 0.374966 5.30832 -6.52581
189 1 Zr 0.87498 0.374922 0.249982 10.557 -8.2458
190 1 Zr 0.87498 0.249982 0.374922 10.557 -8.2458
191 2 N 0.874936 0.249729 0.249729 10.4048 -6.53395
192 2 N 0.874967 0.374971 0.374971 10.5797 -6.52531
193 1 Zr 3.48971e-17 0.5 0.250129 5.28126 -8.25387
194 1 Zr 0.125019 0.5 0.375004 10.6072 -8.24814
195 2 N 0.125037 0.5 0.250028 10.5974 -6.52187
196 2 N 3.73146e-17 0.5 0.37508 5.2987 -6.52382
197 1 Zr 0.250015 0.5 0.250015 5.3106 -8.24879
198 1 Zr 0.375005 0.5 0.375005 5.31219 -8.24925
199 2 N 0.375003 0.5 0.250012 5.31072 -6.52516
200 2 N 0.250012 0.5 0.375003 5.31072 -6.52516
201 1 Zr 0.5 0.5 0.250014 5.31214 -8.24929
202 2 N 0.5 0.5 0.375006 5.31247 -6.52484
203 1 Zr 0.624995 0.5 0.375005 5.31219 -8.24925
204 1 Zr 0.749985 0.5 0.250015 5.3106 -8.24879
205 2 N 0.624997 0.5 0.250012 5.31072 -6.52516
206 2 N 0.749988 0.5 0.375003 5.31072 -6.52516
207 1 Zr 0.874981 0.5 0.375004 10.6072 -8.24814
208 2 N 0.874963 0.5 0.250028 10.5974 -6.52187
209 1 Zr 0.12502 0.625078 0.249982 10.557 -8.2458
210 1 Zr 5.56459e-17 0.624902 0.375098 5.29107 -8.25418
211 1 Zr 6.2768e-17 0.749625 0.250375 15.6622 -8.26496
212 1 Zr 0.12502 0.750018 0.374922 10.557 -8.2458
213 2 N 4.42572e-17 0.624831 0.250215 10.5257 -6.5217
214 2 N 0.125064 0.750271 0.249729 10.4048 -6.53395
215 2 N 0.125033 0.625029 0.374971 10.5797 -6.52531
216 2 N 8.08819e-17 0.749785 0.375169 10.5257 -6.5217
217 1 Zr 0.375 0.625 0.250011 1.44816e-06 -8.24925
218 1 Zr 0.250011 0.625 0.375 1.44816e-06 -8.24925
219 1 Zr 0.249995 0.750005 0.249995 0.000144285 -8.25311
220 1 Zr 0.375 0.749989 0.375 1.44816e-06 -8.24925
221 2 N 0.250001 0.625034 0.250001 5.30832 -6.52581
222 2 N 0.374966 0.749999 0.250001 5.30832 -6.52581
223 2 N 0.375004 0.624996 0.375004 8.26554e-08 -6.52501
224 2 N 0.250001 0.749999 0.374966 5.30832 -6.52581
225 1 Zr 0.5 0.624995 0.375005 10.6244 -8.24925
226 1 Zr 0.5 0.749985 0.250015 5.3106 -8.24879
227 2 N 0.5 0.624997 0.250012 5.31072 -6.52516
228 2 N 0.5 0.749988 0.375003 5.31072 -6.52516
229 1 Zr 0.625 0.625 0.250011 1.44816e-06 -8.24925
230 1 Zr 0.749989 0.625 0.375 1.44816e-06 -8.24925
231 1 Zr 0.625 0.749989 0.375 1.44816e-06 -8.24925
232 1 Zr 0.750005 0.750005 0.249995 0.000144285 -8.25311
233 2 N 0.749999 0.625034 0.250001 5.30832 -6.52581
234 2 N 0.625034 0.749999 0.250001 5.30832 -6.52581
235 2 N 0.624996 0.624996 0.375004 8.26554e-08 -6.52501
236 2 N 0.749999 0.749999 0.374966 5.30832 -6.52581
237 1 Zr 0.87498 0.625078 0.249982 10.557 -8.2458
238 1 Zr 0.87498 0.750018 0.374922 10.557 -8.2458
239 2 N 0.874936 0.750271 0.249729 10.4048 -6.53395
240 2 N 0.874967 0.625029 0.374971 10.5797 -6.52531
241 1 Zr 0.124865 0.875135 0.249479 10.3251 -8.22375
242 1 Zr 6.55139e-17 0.874823 0.375375 10.3525 -8.25805
243 2 N 4.28883e-17 0.874214 0.250946 9.70017 -6.47325
244 2 N 0.125046 0.874954 0.375009 10.483 -6.51426
245 1 Zr 0.374922 0.87498 0.249982 10.557 -8.2458
246 1 Zr 0.249982 0.87498 0.374922 10.557 -8.2458
247 2 N 0.249729 0.874936 0.249729 10.4048 -6.53395
248 2 N 0.374971 0.874967 0.374971 10.5797 -6.52531
249 1 Zr 0.5 0.874981 0.375004 10.6072 -8.24814
250 2 N 0.5 0.874963 0.250028 10.5974 -6.52187
251 1 Zr 0.625078 0.87498 0.249982 10.557 -8.2458
252 1 Zr 0.750018 0.87498 0.374922 10.557 -8.2458
253 2 N 0.750271 0.874936 0.249729 10.4048 -6.53395
254 2 N 0.625029 0.874967 0.374971 10.5797 -6.52531
255 1 Zr 0.875135 0.875135 0.249479 10.3251 -8.22375
256 2 N 0.874954 0.874954 0.375009 10.483 -6.51426
257 1 Zr 4.46635e-18 2.00527e-18 0.5 5.28119 -8.26629
258 1 Zr 0.125034 0.125034 0.5 10.5625 -8.2482
259 2 N 0.12516 -2.24537e-17 0.5 5.23463 -6.52232
260 2 N 7.63424e-19 0.12516 0.5 5.23463 -6.52232
261 1 Zr 0.250129 1.86008e-17 0.5 5.28126 -8.25387
262 1 Zr 0.375004 0.125019 0.5 10.6072 -8.24814
263 2 N 0.37508 3.03982e-17 0.5 5.2987 -6.52382
264 2 N 0.250028 0.125037 0.5 10.5974 -6.52187
265 1 Zr 0.5 2.83313e-17 0.5 5.30471 -8.25272
266 2 N 0.5 0.125027 0.5 5.30624 -6.52497
267 1 Zr 0.624996 0.125019 0.5 10.6072 -8.24814
268 1 Zr 0.749871 4.96243e-18 0.5 5.28126 -8.25387
269 2 N 0.62492 2.19432e-17 0.5 5.2987 -6.52382
270 2 N 0.749972 0.125037 0.5 10.5974 -6.52187
271 1 Zr 0.874966 0.125034 0.5 10.5625 -8.2482
272 2 N 0.87484 -4.50938e-17 0.5 5.23463 -6.52232
273 1 Zr 3.52803e-17 0.250129 0.5 5.28126 -8.25387
274 1 Zr 0.125019 0.375004 0.5 10.6072 -8.24814
275 2 N 0.125037 0.250028 0.5 10.5974 -6.52187
276 2 N 1.90415e-17 0.37508 0.5 5.2987 -6.52382
277 1 Zr 0.250015 0.250015 0.5 5.3106 -8.24879
278 1 Zr 0.375005 0.375005 0.5 10.6244 -8.24925
279 2 N 0.375003 0.250012 0.5 5.31072 -6.52516
280 2 N 0.250012 0.375003 0.5 5.31072 -6.52516
281 1 Zr 0.5 0.250014 0.5 5.31214 -8.24929
282 2 N 0.5 0.375006 0.5 5.31247 -6.52484
283 1 Zr 0.624995 0.375005 0.5 10.6244 -8.24925
284 1 Zr 0.749985 0.250015 0.5 5.3106 -8.24879
285 2 N 0.624997 0.250012 0.5 5.31072 -6.52516
286 2 N 0.749988 0.375003 0.5 5.31072 -6.52516
287 1 Zr 0.874981 0.375004 0.5 10.6072 -8.24814
288 2 N 0.874963 0.250028 0.5 10.5974 -6.52187
289 1 Zr 1.95304e-17 0.5 0.5 5.30471 -8.25272
290 2 N 0.125027 0.5 0.5 5.30624 -6.52497
291 1 Zr 0.250014 0.5 0.5 5.31214 -8.24929
292 2 N 0.375006 0.5 0.5 5.31247 -6.52484
293 1 Zr 0.5 0.5 0.5 15.9377 -8.24931
294 1 Zr 0.749986 0.5 0.5 5.31214 -8.24929
295 2 N 0.624994 0.5 0.5 5.31247 -6.52484
296 2 N 0.874973 0.5 0.5 5.30624 -6.52497
297 1 Zr 0.125019 0.624996 0.5 10.6072 -8.24814
298 1 Zr 3.33297e-17 0.749871 0.5 5.28126 -8.25387
299 2 N 2.25688e-17 0.62492 0.5 5.2987 -6.52382
300 2 N 0.125037 0.749972 0.5 10.5974 -6.52187
301 1 Zr 0.375005 0.624995 0.5 5.31219 -8.24925
302 1 Zr 0.250015 0.749985 0.5 5.3106 -8.24879
303 2 N 0.250012 0.624997 0.5 5.31072 -6.52516
304 2 N 0.375003 0.749988 0.5 5.31072 -6.52516
305 1 Zr 0.5 0.749986 0.5 5.31214 -8.24929
306 2 N 0.5 0.624994 0.5 5.31247 -6.52484
307 1 Zr 0.624995 0.624995 0.5 5.31219 -8.24925
308 1 Zr 0.749985 0.749985 0.5 5.3106 -8.24879
309 2 N 0.749988 0.624997 0.5 5.31072 -6.52516
310 2 N 0.624997 0.749988 0.5 5.31072 -6.52516
311 1 Zr 0.874981 0.624996 0.5 10.6072 -8.24814
312 2 N 0.874963 0.749972 0.5 10.5974 -6.52187
313 1 Zr 0.125034 0.874966 0.5 10.5625 -8.2482
314 2 N -2.83124e-18 0.87484 0.5 5.23463 -6.52232
315 1 Zr 0.375004 0.874981 0.5 10.6072 -8.24814
316 2 N 0.250028 0.874963 0.5 10.5974 -6.52187
317 2 N 0.5 0.874973 0.5 5.30624 -6.52497
318 1 Zr 0.624996 0.874981 0.5 10.6072 -8.24814
319 2 N 0.749972 0.874963 0.5 10.5974 -6.52187
320 1 Zr 0.874966 0.874966 0.5 10.5625 -8.2482
321 1 Zr 0.125177 -2.79897e-17 0.624625 10.3525 -8.25805
322 1 Zr -2.38909e-17 0.125177 0.624625 10.3525 -8.25805
323 1 Zr -4.97956e-18 -3.04439e-18 0.746887 14.7363 -8.3173
324 1 Zr 0.124865 0.124865 0.750521 10.3251 -8.22375
325 2 N -1.93213e-17 -1.67053e-17 0.624069 15.5635 -6.53907
326 2 N 0.125046 0.125046 0.624991 10.483 -6.51426
327 2 N 0.125786 -6.08046e-18 0.749054 9.70017 -6.47325
328 2 N -3.18011e-18 0.125786 0.749054 9.70017 -6.47325
329 1 Zr 0.375098 5.27435e-18 0.624902 5.29107 -8.25418
330 1 Zr 0.249982 0.12502 0.625078 10.557 -8.2458
331 1 Zr 0.250375 -7.29811e-18 0.749625 15.6622 -8.26496
332 1 Zr 0.374922 0.12502 0.750018 10.557 -8.2458
333 2 N 0.250215 -1.00439e-18 0.624831 10.5257 -6.5217
334 2 N 0.374971 0.125033 0.625029 10.5797 -6.52531
335 2 N 0.375169 -1.63913e-17 0.749785 10.5257 -6.5217
336 2 N 0.249729 0.125064 0.750271 10.4048 -6.53395
337 1 Zr 0.5 0.125019 0.624996 10.6072 -8.24814
338 1 Zr 0.5 1.77299e-17 0.749871 5.28126 -8.25387
339 2 N 0.5 1.81688e-18 0.62492 5.2987 -6.52382
340 2 N 0.5 0.125037 0.749972 10.5974 -6.52187
341 1 Zr 0.624902 -1.82363e-18 0.624902 5.29107 -8.25418
342 1 Zr 0.750018 0.12502 0.625078 10.557 -8.2458
343 1 Zr 0.625078 0.12502 0.750018 10.557 -8.2458
344 1 Zr 0.749625 -8.04637e-18 0.749625 15.6622 -8.26496
345 2 N 0.625029 0.125033 0.625029 10.5797 -6.52531
346 2 N 0.624831 -1.07613e-17 0.749785 10.5257 -6.5217
347 2 N 0.749785 -1.50193e-17 0.624831 10.5257 -6.5217
348 2 N 0.750271 0.125064 0.750271 10.4048 -6.53395
349 1 Zr 0.874823 -3.53132e-17 0.624625 10.3525 -8.25805
350 1 Zr 0.875135 0.124865 0.750521 10.3251 -8.22375
351 2 N 0.874954 0.125046 0.624991 10.483 -6.51426
352 2 N 0.874214 -1.59078e-17 0.749054 9.70017 -6.47325
353 1 Zr 0.12502 0.249982 0.625078 10.557 -8.2458
354 1 Zr 9.9658e-19 0.375098 0.624902 5.29107 -8.25418
355 1 Zr 1.49458e-17 0.250375 0.749625 15.6622 -8.26496
356 1 Zr 0.12502 0.374922 0.750018 10.557 -8.2458
357 2 N 7.34293e-18 0.250215 0.624831 10.5257 -6.5217
358 2 N 0.125033 0.374971 0.625029 10.5797 -6.52531
359 2 N 0.125064 0.249729 0.750271 10.4048 -6.53395
360 2 N -4.23016e-18 0.375169 0.749785 10.5257 -6.5217
361 1 Zr 0.375 0.250011 0.625 1.44816e-06 -8.24925
362 1 Zr 0.250011 0.375 0.625 1.44816e-06 -8.24925
363 1 Zr 0.249995 0.249995 0.750005 0.000144285 -8.25311
364 1 Zr 0.375 0.375 0.749989 1.44816e-06 -8.24925
365 2 N 0.250001 0.250001 0.625034 5.30832 -6.52581
366 2 N 0.375004 0.375004 0.624996 8.26554e-08 -6.52501
367 2 N 0.374966 0.250001 0.749999 5.30832 -6.52581
368 2 N 0.250001 0.374966 0.749999 5.30832 -6.52581
369 1 Zr 0.5 0.375005 0.624995 5.31219 -8.24925
370 1 Zr 0.5 0.250015 0.749985 5.3106 -8.24879
371 2 N 0.5 0.250012 0.624997 5.31072 -6.52516
372 2 N 0.5 0.375003 0.749988 5.31072 -6.52516
373 1 Zr 0.625 0.250011 0.625 1.44816e-06 -8.24925
374 1 Zr 0.749989 0.375 0.625 1.44816e-06 -8.24925
375 1 Zr 0.625 0.375 0.749989 1.44816e-06 -8.24925
376 1 Zr 0.750005 0.249995 0.750005 0.000144285 -8.25311
377 2 N 0.624996 0.375004 0.624996 8.26554e-08 -6.52501
378 2 N 0.625034 0.250001 0.749999 5.30832 -6.52581
379 2 N 0.749999 0.250001 0.625034 5.30832 -6.52581
380 2 N 0.749999 0.374966 0.749999 5.30832 -6.52581
381 1 Zr 0.87498 0.249982 0.625078 10.557 -8.2458
382 1 Zr 0.87498 0.374922 0.750018 10.557 -8.2458
383 2 N 0.874967 0.374971 0.625029 10.5797 -6.52531
384 2 N 0.874936 0.249729 0.750271 10.4048 -6.53395
385 1 Zr 0.125019 0.5 0.624996 10.6072 -8.24814
386 1 Zr 1.7134e-17 0.5 0.749871 5.28126 -8.25387
387 2 N 2.08459e-17 0.5 0.62492 5.2987 -6.52382
388 2 N 0.125037 0.5 0.749972 10.5974 -6.52187
389 1 Zr 0.375005 0.5 0.624995 10.6244 -8.24925
390 1 Zr 0.250015 0.5 0.749985 5.3106 -8.24879
391 2 N 0.250012 0.5 0.624997 5.31072 -6.52516
392 2 N 0.375003 0.5 0.749988 5.31072 -6.52516
393 1 Zr 0.5 0.5 0.749986 5.31214 -8.24929
394 2 N 0.5 0.5 0.624994 5.31247 -6.52484
395 1 Zr 0.624995 0.5 0.624995 10.6244 -8.24925
396 1 Zr 0.749985 0.5 0.749985 5.3106 -8.24879
397 2 N 0.624997 0.5 0.749988 5.31072 -6.52516
398 2 N 0.749988 0.5 0.624997 5.31072 -6.52516
399 1 Zr 0.874981 0.5 0.624996 10.6072 -8.24814
400 2 N 0.874963 0.5 0.749972 10.5974 -6.52187
401 1 Zr 4.88277e-18 0.624902 0.624902 5.29107 -8.25418
402 1 Zr 0.12502 0.750018 0.625078 10.557 -8.2458
403 1 Zr 0.12502 0.625078 0.750018 10.557 -8.2458
404 1 Zr -1.47388e-17 0.749625 0.749625 15.6622 -8.26496
405 2 N 0.125033 0.625029 0.625029 10.5797 -6.52531
406 2 N -6.90268e-18 0.624831 0.749785 10.5257 -6.5217
407 2 N 5.31112e-19 0.749785 0.624831 10.5257 -6.5217
408 2 N 0.125064 0.750271 0.750271 10.4048 -6.53395
409 1 Zr 0.250011 0.625 0.625 1.44816e-06 -8.24925
410 1 Zr 0.375 0.749989 0.625 1.44816e-06 -8.24925
411 1 Zr 0.375 0.625 0.749989 1.44816e-06 -8.24925
412 1 Zr 0.249995 0.750005 0.750005 0.000144285 -8.25311
413 2 N 0.375004 0.624996 0.624996 8.26554e-08 -6.52501
414 2 N 0.250001 0.625034 0.749999 5.30832 -6.52581
415 2 N 0.250001 0.749999 0.625034 5.30832 -6.52581
416 2 N 0.374966 0.749999 0.749999 5.30832 -6.52581
417 1 Zr 0.5 0.624995 0.624995 10.6244 -8.24925
418 1 Zr 0.5 0.749985 0.749985 5.3106 -8.24879
419 2 N 0.5 0.624997 0.749988 5.31072 -6.52516
420 2 N 0.5 0.749988 0.624997 5.31072 -6.52516
421 1 Zr 0.749989 0.625 0.625 1.44816e-06 -8.24925
422 1 Zr 0.625 0.749989 0.625 1.44816e-06 -8.24925
423 1 Zr 0.625 0.625 0.749989 1.44816e-06 -8.24925
424 1 Zr 0.750005 0.750005 0.750005 0.000144285 -8.25311
425 2 N 0.624996 0.624996 0.624996 8.26554e-08 -6.52501
426 2 N 0.749999 0.625034 0.749999 5.30832 -6.52581
427 2 N 0.625034 0.749999 0.749999 5.30832 -6.52581
428 2 N 0.749999 0.749999 0.625034 5.30832 -6.52581
429 1 Zr 0.87498 0.750018 0.625078 10.557 -8.2458
430 1 Zr 0.87498 0.625078 0.750018 10.557 -8.2458
431 2 N 0.874967 0.625029 0.625029 10.5797 -6.52531
432 2 N 0.874936 0.750271 0.750271 10.4048 -6.53395
433 1 Zr -1.79165e-17 0.874823 0.624625 10.3525 -8.25805
434 1 Zr 0.124865 0.875135 0.750521 10.3251 -8.22375
435 2 N 0.125046 0.874954 0.624991 10.483 -6.51426
436 2 N -9.76965e-18 0.874214 0.749054 9.70017 -6.47325
437 1 Zr 0.249982 0.87498 0.625078 10.557 -8.2458
438 1 Zr 0.374922 0.87498 0.750018 10.557 -8.2458
439 2 N 0.374971 0.874967 0.625029 10.5797 -6.52531
440 2 N 0.249729 0.874936 0.750271 10.4048 -6.53395
441 1 Zr 0.5 0.874981 0.624996 10.6072 -8.24814
442 2 N 0.5 0.874963 0.749972 10.5974 -6.52187
443 1 Zr 0.750018 0.87498 0.625078 10.557 -8.2458
444 1 Zr 0.625078 0.87498 0.750018 10.557 -8.2458
445 2 N 0.625029 0.874967 0.625029 10.5797 -6.52531
446 2 N 0.750271 0.874936 0.750271 10.4048 -6.53395
447 1 Zr 0.875135 0.875135 0.750521 10.3251 -8.22375
448 2 N 0.874954 0.874954 0.624991 10.483 -6.51426
449 1 Zr 0.125142 -1.85563e-17 0.874858 5.17503 -8.2639
450 1 Zr -2.89629e-17 0.125142 0.874858 5.17503 -8.2639
451 2 N -2.12489e-17 -2.62063e-17 0.864196 11.671 -6.36629
452 2 N 0.122917 0.122917 0.877083 14.9615 -6.55406
453 1 Zr 0.375375 -3.83052e-17 0.874823 10.3525 -8.25805
454 1 Zr 0.249479 0.124865 0.875135 10.3251 -8.22375
455 2 N 0.250946 -1.4012e-17 0.874214 9.70017 -6.47325
456 2 N 0.375009 0.125046 0.874954 10.483 -6.51426
457 1 Zr 0.5 0.125034 0.874966 10.5625 -8.2482
458 2 N 0.5 -3.10733e-17 0.87484 5.23463 -6.52232
459 1 Zr 0.624625 -2.88648e-17 0.874823 10.3525 -8.25805
460 1 Zr 0.750521 0.124865 0.875135 10.3251 -8.22375
461 2 N 0.624991 0.125046 0.874954 10.483 -6.51426
462 2 N 0.749054 -5.29651e-18 0.874214 9.70017 -6.47325
463 1 Zr 0.874858 -2.23385e-17 0.874858 5.17503 -8.2639
464 2 N 0.877083 0.122917 0.877083 14.9615 -6.55406
465 1 Zr 0.124865 0.249479 0.875135 10.3251 -8.22375
466 1 Zr -3.52467e-17 0.375375 0.874823 10.3525 -8.25805
467 2 N -1.37423e-17 0.250946 0.874214 9.70017 -6.47325
468 2 N 0.125046 0.375009 0.874954 10.483 -6.51426
469 1 Zr 0.374922 0.249982 0.87498 10.557 -8.2458
470 1 Zr 0.249982 0.374922 0.87498 10.557 -8.2458
471 2 N 0.249729 0.249729 0.874936 10.4048 -6.53395
472 2 N 0.374971 0.374971 0.874967 10.5797 -6.52531
473 1 Zr 0.5 0.375004 0.874981 10.6072 -8.24814
474 2 N 0.5 0.250028 0.874963 10.5974 -6.52187
475 1 Zr 0.625078 0.249982 0.87498 10.557 -8.2458
476 1 Zr 0.750018 0.374922 0.87498 10.557 -8.2458
477 2 N 0.625029 0.374971 0.874967 10.5797 -6.52531
478 2 N 0.750271 0.249729 0.874936 10.4048 -6.53395
479 1 Zr 0.875135 0.249479 0.875135 10.3251 -8.22375
480 2 N 0.874954 0.375009 0.874954 10.483 -6.51426
481 1 Zr 0.125034 0.5 0.874966 10.5625 -8.2482
482 2 N -3.66268e-17 0.5 0.87484 5.23463 -6.52232
483 1 Zr 0.375004 0.5 0.874981 10.6072 -8.24814
484 2 N 0.250028 0.5 0.874963 10.5974 -6.52187
485 2 N 0.5 0.5 0.874973 5.30624 -6.52497
486 1 Zr 0.624996 0.5 0.874981 10.6072 -8.24814
487 2 N 0.749972 0.5 0.874963 10.5974 -6.52187
488 1 Zr 0.874966 0.5 0.874966 10.5625 -8.2482
489 1 Zr -3.71757e-17 0.624625 0.874823 10.3525 -8.25805
490 1 Zr 0.124865 0.750521 0.875135 10.3251 -8.22375
491 2 N 0.125046 0.624991 0.874954 10.483 -6.51426
492 2 N -3.25719e-17 0.749054 0.874214 9.70017 -6.47325
493 1 Zr 0.249982 0.625078 0.87498 10.557 -8.2458
494 1 Zr 0.374922 0.750018 0.87498 10.557 -8.2458
495 2 N 0.374971 0.625029 0.874967 10.5797 -6.52531
496 2 N 0.249729 0.750271 0.874936 10.4048 -6.53395
497 1 Zr 0.5 0.624996 0.874981 10.6072 -8.24814
498 2 N 0.5 0.749972 0.874963 10.5974 -6.52187
499 1 Zr 0.750018 0.625078 0.87498 10.557 -8.2458
500 1 Zr 0.625078 0.750018 0.87498 10.557 -8.2458
501 2 N 0.625029 0.625029 0.874967 10.5797 -6.52531
502 2 N 0.750271 0.750271 0.874936 10.4048 -6.53395
503 1 Zr 0.875135 0.750521 0.875135 10.3251 -8.22375
504 2 N 0.874954 0.624991 0.874954 10.483 -6.51426
505 1 Zr -4.03778e-17 0.874858 0.874858 5.17503 -8.2639
506 2 N 0.122917 0.877083 0.877083 14.9615 -6.55406
507 1 Zr 0.249479 0.875135 0.875135 10.3251 -8.22375
508 2 N 0.375009 0.874954 0.874954 10.483 -6.51426
509 1 Zr 0.5 0.874966 0.874966 10.5625 -8.2482
510 1 Zr 0.750521 0.875135 0.875135 10.3251 -8.22375
511 2 N 0.624991 0.874954 0.874954 10.483 -6.51426
1 2 N 0.877083 0.877083 0.877083 14.9615 -6.55406
