ITEM: TIMESTEP
22
ITEM: NUMBER OF ATOMS
63
ITEM: BOX BOUNDS pp pp pp
-4.6109999999999998e+00 4.6109999999999998e+00
-4.6109999999999998e+00 4.6109999999999998e+00
-4.6109999999999998e+00 4.6109999999999998e+00
ITEM: ATOMS id type element xs ys zs c_csym c_eng
1 1 Zr 0 0 0 10.6433 -8.27863
2 1 Zr 0.250147 0.250147 0 5.1895 -8.18957
3 1 Zr 0.250147 0 0.250147 5.1895 -8.18957
4 1 Zr 0 0.250147 0.250147 5.1895 -8.18957
5 2 N 0.249271 0 0 5.21365 -6.56309
6 2 N 0 0.249271 0 5.21365 -6.56309
7 2 N 0 0 0.249271 5.21365 -6.56309
8 2 N 0.253557 0.253557 0.253557 10.1643 -6.52429
9 1 Zr 0.5 0 0 5.30964 -8.3057
10 1 Zr 0.749853 0.250147 0 10.369 -8.18957
11 1 Zr 0.749853 0 0.250147 5.1895 -8.18957
12 1 Zr 0.5 0.25065 0.25065 9.0668 -8.28439
13 2 N 0.750729 0 0 5.21365 -6.56309
14 2 N 0.5 0.247556 0 4.59738 -6.41836
15 2 N 0.5 0 0.247556 4.59738 -6.41836
16 2 N 0.746443 0.253557 0.253557 10.1643 -6.52429
17 1 Zr 0 0.5 0 5.30964 -8.3057
18 1 Zr 0.250147 0.749853 0 10.369 -8.18957
19 1 Zr 0.25065 0.5 0.25065 9.0668 -8.28439
20 1 Zr 0 0.749853 0.250147 5.1895 -8.18957
21 2 N 0.247556 0.5 0 4.59738 -6.41836
22 2 N 0 0.750729 0 5.21365 -6.56309
23 2 N 0 0.5 0.247556 4.59738 -6.41836
24 2 N 0.253557 0.746443 0.253557 10.1643 -6.52429
25 1 Zr 0.5 0.5 -9.63108e-17 5.30964 -8.35964
26 1 Zr 0.749853 0.749853 0 5.1895 -8.18957
27 1 Zr 0.74935 0.5 0.25065 9.0668 -8.28439
28 1 Zr 0.5 0.74935 0.25065 9.0668 -8.28439
29 2 N 0.752444 0.5 0 4.59738 -6.41836
30 2 N 0.5 0.752444 0 4.59738 -6.41836
31 2 N 0.5 0.5 0.23097 11.8296 -6.3572
32 2 N 0.746443 0.746443 0.253557 15.1985 -6.52429
33 1 Zr 0 0 0.5 5.30964 -8.3057
34 1 Zr 0.25065 0.25065 0.5 9.0668 -8.28439
35 1 Zr 0.250147 0 0.749853 5.1895 -8.18957
36 1 Zr 0 0.250147 0.749853 5.1895 -8.18957
37 2 N 0.247556 0 0.5 4.59738 -6.41836
38 2 N 0 0.247556 0.5 4.59738 -6.41836
39 2 N 0 0 0.750729 5.21365 -6.56309
40 2 N 0.253557 0.253557 0.746443 10.1643 -6.52429
41 1 Zr 0.5 0 0.5 5.30964 -8.35964
42 1 Zr 0.74935 0.25065 0.5 9.0668 -8.28439
43 1 Zr 0.749853 0 0.749853 5.1895 -8.18957
44 1 Zr 0.5 0.25065 0.74935 9.0668 -8.28439
45 2 N 0.752444 0 0.5 4.59738 -6.41836
46 2 N 0.5 0.23097 0.5 11.8296 -6.3572
47 2 N 0.5 0 0.752444 4.59738 -6.41836
48 2 N 0.746443 0.253557 0.746443 10.1643 -6.52429
49 1 Zr -1.92622e-16 0.5 0.5 5.30964 -8.35964
50 1 Zr 0.25065 0.74935 0.5 9.0668 -8.28439
51 1 Zr 0.25065 0.5 0.74935 9.0668 -8.28439
52 1 Zr 0 0.749853 0.749853 10.369 -8.18957
53 2 N 0.23097 0.5 0.5 11.8296 -6.3572
54 2 N 0 0.752444 0.5 4.59738 -6.41836
55 2 N 0 0.5 0.752444 4.59738 -6.41836
56 2 N 0.253557 0.746443 0.746443 10.1643 -6.52429
57 2 N 0.746443 0.746443 0.746443 15.1985 -6.52429
58 1 Zr 0.74935 0.74935 0.5 9.0668 -8.28439
59 1 Zr 0.74935 0.5 0.74935 9.0668 -8.28439
60 1 Zr 0.5 0.74935 0.74935 9.0668 -8.28439
61 2 N 0.76903 0.5 0.5 11.8296 -6.3572
62 2 N 0.5 0.76903 0.5 11.8296 -6.3572
63 2 N 0.5 0.5 0.76903 11.8296 -6.3572
