ITEM: TIMESTEP
23
ITEM: NUMBER OF ATOMS
63
ITEM: BOX BOUNDS pp pp pp
0.0000000000000000e+00 9.2219999999999995e+00
0.0000000000000000e+00 9.2219999999999995e+00
0.0000000000000000e+00 9.2219999999999995e+00
ITEM: ATOMS id type element xs ys zs c_csym c_eng
2 1 Zr 0.24935 0.24935 -2.85647e-17 9.0668 -8.28439
3 1 Zr 0.24935 -1.20634e-17 0.24935 9.0668 -8.28439
4 1 Zr 1.33312e-17 0.24935 0.24935 9.0668 -8.28439
5 2 N 0.26903 -5.46662e-17 -2.79848e-17 11.8296 -6.3572
6 2 N -2.24806e-17 0.26903 -4.53628e-17 11.8296 -6.3572
7 2 N -3.71219e-17 -2.336e-17 0.26903 11.8296 -6.3572
8 2 N 0.246443 0.246443 0.246443 10.1643 -6.52429
9 1 Zr 0.5 -2.87799e-17 -3.43506e-17 5.30964 -8.35964
10 1 Zr 0.75065 0.24935 2.06656e-17 9.0668 -8.28439
11 1 Zr 0.75065 3.19477e-17 0.24935 9.0668 -8.28439
12 1 Zr 0.5 0.249853 0.249853 5.1895 -8.18957
13 2 N 0.73097 -2.06975e-17 -5.71616e-17 11.8296 -6.3572
14 2 N 0.5 0.252444 -3.64053e-17 4.59738 -6.41836
15 2 N 0.5 -2.92324e-17 0.252444 4.59738 -6.41836
16 2 N 0.753557 0.246443 0.246443 15.1985 -6.52429
17 1 Zr -1.28078e-17 0.5 -2.25896e-17 5.30964 -8.35964
18 1 Zr 0.24935 0.75065 8.94847e-18 9.0668 -8.28439
19 1 Zr 0.249853 0.5 0.249853 5.1895 -8.18957
20 1 Zr 1.15325e-17 0.75065 0.24935 9.0668 -8.28439
21 2 N 0.252444 0.5 -7.13387e-18 4.59738 -6.41836
22 2 N -5.25219e-17 0.73097 -6.42119e-17 11.8296 -6.3572
23 2 N -8.29354e-18 0.5 0.252444 4.59738 -6.41836
24 2 N 0.246443 0.753557 0.246443 10.1643 -6.52429
25 1 Zr 0.5 0.5 -2.64132e-17 5.30964 -8.3057
26 1 Zr 0.75065 0.75065 8.75703e-18 9.0668 -8.28439
27 1 Zr 0.750147 0.5 0.249853 5.1895 -8.18957
28 1 Zr 0.5 0.750147 0.249853 10.369 -8.18957
29 2 N 0.747556 0.5 -2.89626e-17 4.59738 -6.41836
30 2 N 0.5 0.747556 -2.77797e-17 4.59738 -6.41836
31 2 N 0.5 0.5 0.250729 5.21365 -6.56309
32 2 N 0.753557 0.753557 0.246443 15.1985 -6.52429
33 1 Zr -1.44686e-17 -2.14216e-17 0.5 3.47668e-30 -8.35964
34 1 Zr 0.249853 0.249853 0.5 5.1895 -8.18957
35 1 Zr 0.24935 -1.00271e-17 0.75065 9.0668 -8.28439
36 1 Zr 1.30499e-18 0.24935 0.75065 9.0668 -8.28439
37 2 N 0.252444 -6.77856e-18 0.5 4.59738 -6.41836
38 2 N -2.22508e-17 0.252444 0.5 4.59738 -6.41836
39 2 N -4.31641e-17 -5.85297e-17 0.73097 11.8296 -6.3572
40 2 N 0.246443 0.246443 0.753557 10.1643 -6.52429
41 1 Zr 0.5 -1.62689e-17 0.5 5.30964 -8.3057
42 1 Zr 0.750147 0.249853 0.5 10.369 -8.18957
43 1 Zr 0.75065 2.28919e-17 0.75065 9.0668 -8.28439
44 1 Zr 0.5 0.249853 0.750147 5.1895 -8.18957
45 2 N 0.747556 1.23114e-17 0.5 4.59738 -6.41836
46 2 N 0.5 0.250729 0.5 5.21365 -6.56309
47 2 N 0.5 -3.78289e-17 0.747556 4.59738 -6.41836
48 2 N 0.753557 0.246443 0.753557 10.1643 -6.52429
49 1 Zr -4.92631e-18 0.5 0.5 5.30964 -8.3057
50 1 Zr 0.249853 0.750147 0.5 5.1895 -8.18957
51 1 Zr 0.249853 0.5 0.750147 5.1895 -8.18957
52 1 Zr -2.45005e-17 0.75065 0.75065 9.0668 -8.28439
53 2 N 0.250729 0.5 0.5 5.21365 -6.56309
54 2 N -9.02001e-19 0.747556 0.5 4.59738 -6.41836
55 2 N -2.55675e-17 0.5 0.747556 4.59738 -6.41836
56 2 N 0.246443 0.753557 0.753557 10.1643 -6.52429
1 2 N 0.753557 0.753557 0.753557 10.1643 -6.52429
57 1 Zr 0.5 0.5 0.5 15.965 -8.27863
58 1 Zr 0.750147 0.750147 0.5 5.1895 -8.18957
59 1 Zr 0.750147 0.5 0.750147 10.369 -8.18957
60 1 Zr 0.5 0.750147 0.750147 10.369 -8.18957
61 2 N 0.749271 0.5 0.5 5.21365 -6.56309
62 2 N 0.5 0.749271 0.5 5.21365 -6.56309
63 2 N 0.5 0.5 0.749271 5.21365 -6.56309
