ITEM: TIMESTEP
0
ITEM: NUMBER OF ATOMS
63
ITEM: BOX BOUNDS pp pp pp
0.0000000000000000e+00 9.2219999999999995e+00
0.0000000000000000e+00 9.2219999999999995e+00
0.0000000000000000e+00 9.2219999999999995e+00
ITEM: ATOMS id type element xs ys zs c_csym c_eng
2 1 Zr 0.25 0.25 0 10.6307 -8.24634
3 1 Zr 0.25 0 0.25 10.6307 -8.24634
4 1 Zr 0 0.25 0.25 10.6307 -8.24634
5 2 N 0.25 0 0 15.946 -6.09938
6 2 N 0 0.25 0 15.946 -6.09938
7 2 N 0 0 0.25 15.946 -6.09938
8 2 N 0.25 0.25 0.25 10.6307 -6.52765
9 1 Zr 0.5 0 0 5.31533 -8.24634
10 1 Zr 0.75 0.25 0 15.946 -8.24634
11 1 Zr 0.75 0 0.25 15.946 -8.24634
12 1 Zr 0.5 0.25 0.25 10.6307 -8.24634
13 2 N 0.75 0 0 15.946 -6.09938
14 2 N 0.5 0.25 0 5.31533 -6.52765
15 2 N 0.5 0 0.25 5.31533 -6.52765
16 2 N 0.75 0.25 0.25 15.946 -6.52765
17 1 Zr 0 0.5 0 5.31533 -8.24634
18 1 Zr 0.25 0.75 0 15.946 -8.24634
19 1 Zr 0.25 0.5 0.25 10.6307 -8.24634
20 1 Zr 0 0.75 0.25 15.946 -8.24634
21 2 N 0.25 0.5 0 5.31533 -6.52765
22 2 N 0 0.75 0 15.946 -6.09938
23 2 N 0 0.5 0.25 10.6307 -6.52765
24 2 N 0.25 0.75 0.25 15.946 -6.52765
25 1 Zr 0.5 0.5 0 10.6307 -8.24634
26 1 Zr 0.75 0.75 0 10.6307 -8.24634
27 1 Zr 0.75 0.5 0.25 15.946 -8.24634
28 1 Zr 0.5 0.75 0.25 15.946 -8.24634
29 2 N 0.75 0.5 0 10.6307 -6.52765
30 2 N 0.5 0.75 0 10.6307 -6.52765
31 2 N 0.5 0.5 0.25 10.6307 -6.52765
32 2 N 0.75 0.75 0.25 15.946 -6.52765
33 1 Zr 0 0 0.5 10.6307 -8.24634
34 1 Zr 0.25 0.25 0.5 10.6307 -8.24634
35 1 Zr 0.25 0 0.75 15.946 -8.24634
36 1 Zr 0 0.25 0.75 15.946 -8.24634
37 2 N 0.25 0 0.5 10.6307 -6.52765
38 2 N 0 0.25 0.5 10.6307 -6.52765
39 2 N 0 0 0.75 15.946 -6.09938
40 2 N 0.25 0.25 0.75 15.946 -6.52765
41 1 Zr 0.5 0 0.5 15.946 -8.24634
42 1 Zr 0.75 0.25 0.5 15.946 -8.24634
43 1 Zr 0.75 0 0.75 10.6307 -8.24634
44 1 Zr 0.5 0.25 0.75 10.6307 -8.24634
45 2 N 0.75 0 0.5 10.6307 -6.52765
46 2 N 0.5 0.25 0.5 10.6307 -6.52765
47 2 N 0.5 0 0.75 10.6307 -6.52765
48 2 N 0.75 0.25 0.75 10.6307 -6.52765
49 1 Zr 0 0.5 0.5 10.6307 -8.24634
50 1 Zr 0.25 0.75 0.5 10.6307 -8.24634
51 1 Zr 0.25 0.5 0.75 15.946 -8.24634
52 1 Zr 0 0.75 0.75 10.6307 -8.24634
53 2 N 0.25 0.5 0.5 15.946 -6.52765
54 2 N 0 0.75 0.5 10.6307 -6.52765
55 2 N 0 0.5 0.75 15.946 -6.52765
56 2 N 0.25 0.75 0.75 15.946 -6.52765
1 2 N 0.75 0.75 0.75 10.6307 -6.52765
57 1 Zr 0.5 0.5 0.5 15.946 -8.24634
58 1 Zr 0.75 0.75 0.5 10.6307 -8.24634
59 1 Zr 0.75 0.5 0.75 10.6307 -8.24634
60 1 Zr 0.5 0.75 0.75 10.6307 -8.24634
61 2 N 0.75 0.5 0.5 10.6307 -6.52765
62 2 N 0.5 0.75 0.5 10.6307 -6.52765
63 2 N 0.5 0.5 0.75 10.6307 -6.52765
