ITEM: TIMESTEP
50
ITEM: NUMBER OF ATOMS
1727
ITEM: BOX BOUNDS pp pp pp
0.0000000000000000e+00 2.7660000000000004e+01
0.0000000000000000e+00 2.7660000000000004e+01
0.0000000000000000e+00 2.7660000000000004e+01
ITEM: ATOMS id type element xs ys zs c_csym c_eng
2 1 Zr 0.0834493 0.0834493 -9.05251e-17 5.17445 -8.26125
3 1 Zr 0.0834493 -2.1366e-17 0.0834493 5.17445 -8.26125
4 1 Zr -4.53471e-17 0.0834493 0.0834493 5.17445 -8.26125
5 2 N 0.0905665 -8.47653e-18 -3.47834e-17 11.6757 -6.3678
6 2 N -6.43452e-17 0.0905665 -7.12977e-17 11.6757 -6.3678
7 2 N -2.84797e-17 -4.62695e-17 0.0905665 11.6757 -6.3678
8 2 N 0.0819537 0.0819537 0.0819537 14.9611 -6.55593
9 1 Zr 0.168816 -5.32409e-17 -7.85806e-17 14.7383 -8.31516
10 1 Zr 0.250354 0.0834404 -6.16122e-17 10.3504 -8.25558
11 1 Zr 0.250354 -7.80078e-17 0.0834404 10.3504 -8.25558
12 1 Zr 0.166348 0.0832447 0.0832447 10.327 -8.22239
13 2 N 0.250778 -1.05777e-16 -8.44376e-17 15.5547 -6.53923
14 2 N 0.167346 0.0838582 -8.72795e-17 9.70349 -6.47462
15 2 N 0.167346 -5.80265e-17 0.0838582 9.70349 -6.47462
16 2 N 0.250059 0.0833549 0.0833549 5.24768 -6.51623
17 1 Zr 0.333717 -5.55519e-17 -5.31828e-17 15.7489 -8.25768
18 1 Zr 0.41675 0.0833601 -5.53442e-17 10.5772 -8.25125
19 1 Zr 0.41675 -6.87312e-17 0.0833601 10.5772 -8.25125
20 1 Zr 0.333386 0.0833485 0.0833485 0.000189859 -8.24847
21 2 N 0.416797 -4.07514e-17 -7.20519e-17 5.29037 -6.52581
22 2 N 0.333519 0.0833933 -1.14187e-16 10.5274 -6.52392
23 2 N 0.333519 -5.51963e-17 0.0833933 10.5274 -6.52392
24 2 N 0.416707 0.0833523 0.0833523 5.29827 -6.52352
25 1 Zr 0.5 -4.37308e-17 -5.1387e-17 5.30243 -8.25237
26 1 Zr 0.5 0.0833469 0.0833469 5.30244 -8.24971
27 2 N 0.5 0.0833582 -9.36594e-17 5.29639 -6.52435
28 2 N 0.5 -7.16764e-17 0.0833582 1.38659e-05 -6.52435
29 1 Zr 0.58325 0.0833601 -7.34182e-17 10.5772 -8.25125
30 1 Zr 0.58325 -5.55486e-17 0.0833601 10.5772 -8.25125
31 1 Zr 0.666283 -5.57823e-17 -8.0176e-17 15.7489 -8.25768
32 1 Zr 0.666614 0.0833485 0.0833485 0.000189859 -8.24847
33 2 N 0.583203 -1.77061e-17 -3.63875e-17 5.29037 -6.52581
34 2 N 0.666481 0.0833933 -5.13753e-17 10.5274 -6.52392
35 2 N 0.583293 0.0833523 0.0833523 5.29827 -6.52352
36 2 N 0.666481 -8.09249e-17 0.0833933 10.5274 -6.52392
37 1 Zr 0.749646 0.0834404 -6.05678e-17 10.3504 -8.25558
38 1 Zr 0.749646 -4.35358e-17 0.0834404 10.3504 -8.25558
39 1 Zr 0.831184 -7.45516e-17 -8.02275e-17 14.7383 -8.31516
40 1 Zr 0.833652 0.0832447 0.0832447 10.327 -8.22239
41 2 N 0.749222 -6.02742e-17 -9.36721e-17 15.5547 -6.53923
42 2 N 0.832654 0.0838582 -7.10702e-17 9.70349 -6.47462
43 2 N 0.749941 0.0833549 0.0833549 5.24768 -6.51623
44 2 N 0.832654 -2.26438e-17 0.0838582 9.70349 -6.47462
45 1 Zr 0.916551 0.0834493 -8.39961e-17 5.17445 -8.26125
46 1 Zr 0.916551 -2.59488e-17 0.0834493 5.17445 -8.26125
47 2 N 0.909433 -8.46171e-18 -4.33859e-17 11.6757 -6.3678
48 2 N 0.918046 0.0819537 0.0819537 14.9611 -6.55593
49 1 Zr -8.01856e-17 0.168816 -5.2862e-17 14.7383 -8.31516
50 1 Zr 0.0834404 0.250354 -4.72716e-17 10.3504 -8.25558
51 1 Zr 0.0832447 0.166348 0.0832447 10.327 -8.22239
52 1 Zr -7.34892e-17 0.250354 0.0834404 10.3504 -8.25558
53 2 N 0.0838582 0.167346 -4.9712e-17 9.70349 -6.47462
54 2 N -6.23734e-17 0.250778 -5.7614e-17 15.5547 -6.53923
55 2 N -5.53229e-17 0.167346 0.0838582 9.70349 -6.47462
56 2 N 0.0833549 0.250059 0.0833549 5.24768 -6.51623
57 1 Zr 0.166937 0.166937 -2.93267e-17 15.6551 -8.26319
58 1 Zr 0.250083 0.250083 -6.2623e-17 10.5799 -8.25228
59 1 Zr 0.249962 0.166653 0.0833413 10.5558 -8.24547
60 1 Zr 0.166653 0.249962 0.0833413 10.5558 -8.24547
61 2 N 0.250159 0.166804 -9.70594e-17 10.5266 -6.52275
62 2 N 0.166804 0.250159 -1.91408e-17 10.5266 -6.52275
63 2 N 0.166493 0.166493 0.0833708 10.4085 -6.53551
64 2 N 0.249984 0.249984 0.0833469 10.5835 -6.52627
65 1 Zr 0.333426 0.166723 -6.64394e-17 10.5783 -8.25114
66 1 Zr 0.416688 0.250028 -6.05776e-17 10.6132 -8.24985
67 1 Zr 0.416677 0.166683 0.0833421 5.3037 -8.24897
68 1 Zr 0.333334 0.250008 0.0833395 5.30282 -8.24846
69 2 N 0.416706 0.166703 -5.8022e-17 10.6009 -6.52446
70 2 N 0.333379 0.250046 -7.28928e-17 10.6029 -6.52466
71 2 N 0.333347 0.166683 0.083347 5.24346e-05 -6.52366
72 2 N 0.416671 0.250014 0.0833406 5.30831 -6.52462
73 1 Zr 0.5 0.166694 -3.50405e-17 5.30244 -8.25007
74 1 Zr 0.5 0.250014 0.0833387 10.6206 -8.24903
75 2 N 0.5 0.250025 -5.30538e-17 5.30798 -6.52472
76 2 N 0.5 0.166686 0.0833438 10.6158 -6.52423
77 1 Zr 0.583312 0.250028 -5.23903e-17 10.6132 -8.24985
78 1 Zr 0.583323 0.166683 0.0833421 5.3037 -8.24897
79 1 Zr 0.666574 0.166723 -5.75678e-17 10.5783 -8.25114
80 1 Zr 0.666666 0.250008 0.0833395 5.30282 -8.24846
81 2 N 0.583294 0.166703 -4.30634e-17 10.6009 -6.52446
82 2 N 0.666621 0.250046 -4.33104e-17 10.6029 -6.52466
83 2 N 0.583329 0.250014 0.0833406 5.30831 -6.52462
84 2 N 0.666653 0.166683 0.083347 5.24346e-05 -6.52366
85 1 Zr 0.749917 0.250083 -4.43814e-17 10.5799 -8.25228
86 1 Zr 0.750038 0.166653 0.0833413 10.5558 -8.24547
87 1 Zr 0.833063 0.166937 -6.39368e-17 15.6551 -8.26319
88 1 Zr 0.833347 0.249962 0.0833413 10.5558 -8.24547
89 2 N 0.749841 0.166804 -2.79441e-17 10.5266 -6.52275
90 2 N 0.833196 0.250159 -4.29614e-17 10.5266 -6.52275
91 2 N 0.750016 0.249984 0.0833469 10.5835 -6.52627
92 2 N 0.833507 0.166493 0.0833708 10.4085 -6.53551
93 1 Zr 0.91656 0.250354 -1.00534e-16 10.3504 -8.25558
94 1 Zr 0.916755 0.166348 0.0832447 10.327 -8.22239
95 2 N 0.916142 0.167346 -9.31231e-17 9.70349 -6.47462
96 2 N 0.916645 0.250059 0.0833549 5.24768 -6.51623
97 1 Zr -5.47506e-17 0.333717 -5.22423e-17 15.7489 -8.25768
98 1 Zr 0.0833601 0.41675 -8.93219e-17 10.5772 -8.25125
99 1 Zr 0.0833485 0.333386 0.0833485 0.000189859 -8.24847
100 1 Zr -4.88359e-17 0.41675 0.0833601 10.5772 -8.25125
101 2 N 0.0833933 0.333519 -4.05026e-17 10.5274 -6.52392
102 2 N -8.50136e-17 0.416797 -4.48145e-17 5.29037 -6.52581
103 2 N -8.37108e-17 0.333519 0.0833933 10.5274 -6.52392
104 2 N 0.0833523 0.416707 0.0833523 5.29827 -6.52352
105 1 Zr 0.166723 0.333426 -8.22353e-17 10.5783 -8.25114
106 1 Zr 0.250028 0.416688 -1.01534e-16 10.6132 -8.24985
107 1 Zr 0.250008 0.333334 0.0833395 5.30282 -8.24846
108 1 Zr 0.166683 0.416677 0.0833421 5.3037 -8.24897
109 2 N 0.250046 0.333379 -6.89953e-17 10.6029 -6.52466
110 2 N 0.166703 0.416706 -9.91174e-17 10.6009 -6.52446
111 2 N 0.166683 0.333347 0.083347 5.24346e-05 -6.52366
112 2 N 0.250014 0.416671 0.0833406 5.30831 -6.52462
113 1 Zr 0.333361 0.333361 -5.5535e-17 10.614 -8.24996
114 1 Zr 0.416676 0.416676 -7.18283e-17 5.3108 -8.24944
115 1 Zr 0.41667 0.333342 0.0833374 5.31017 -8.24898
116 1 Zr 0.333342 0.41667 0.0833374 5.31017 -8.24898
117 2 N 0.416679 0.333352 -2.61591e-17 5.30928 -6.52482
118 2 N 0.333352 0.416679 -6.76133e-17 5.30928 -6.52482
119 2 N 0.333338 0.333338 0.08334 5.50698e-06 -6.52503
120 2 N 0.416671 0.416671 0.0833376 5.31133 -6.5249
121 1 Zr 0.5 0.33335 -7.02921e-17 5.31028 -8.24949
122 1 Zr 0.5 0.416671 0.0833365 5.31175 -8.24906
123 2 N 0.5 0.416675 -5.03784e-17 5.31143 -6.52486
124 2 N 0.5 0.333343 0.0833382 5.31143 -6.52482
125 1 Zr 0.583324 0.416676 -4.77687e-17 5.3108 -8.24944
126 1 Zr 0.58333 0.333342 0.0833374 5.31017 -8.24898
127 1 Zr 0.666639 0.333361 -4.29888e-17 10.614 -8.24996
128 1 Zr 0.666658 0.41667 0.0833374 5.31017 -8.24898
129 2 N 0.583321 0.333352 -2.60574e-17 5.30928 -6.52482
130 2 N 0.666648 0.416679 -2.92913e-17 5.30928 -6.52482
131 2 N 0.583329 0.416671 0.0833376 5.31133 -6.5249
132 2 N 0.666662 0.333338 0.08334 5.50698e-06 -6.52503
133 1 Zr 0.749972 0.416688 -4.88468e-17 10.6132 -8.24985
134 1 Zr 0.749992 0.333334 0.0833395 5.30282 -8.24846
135 1 Zr 0.833277 0.333426 -7.40171e-17 10.5783 -8.25114
136 1 Zr 0.833317 0.416677 0.0833421 5.3037 -8.24897
137 2 N 0.749954 0.333379 -1.85647e-17 10.6029 -6.52466
138 2 N 0.833297 0.416706 -1.06697e-16 10.6009 -6.52446
139 2 N 0.749986 0.416671 0.0833406 5.30831 -6.52462
140 2 N 0.833317 0.333347 0.083347 5.24346e-05 -6.52366
141 1 Zr 0.91664 0.41675 -8.83574e-17 10.5772 -8.25125
142 1 Zr 0.916652 0.333386 0.0833485 0.000189859 -8.24847
143 2 N 0.916607 0.333519 -5.13482e-17 10.5274 -6.52392
144 2 N 0.916648 0.416707 0.0833523 5.29827 -6.52352
145 1 Zr -4.33854e-17 0.5 -6.17595e-17 5.30243 -8.25237
146 1 Zr 0.0833469 0.5 0.0833469 5.30244 -8.24971
147 2 N 0.0833582 0.5 -8.3783e-17 5.29639 -6.52435
148 2 N -6.9952e-17 0.5 0.0833582 5.29639 -6.52435
149 1 Zr 0.166694 0.5 -4.64045e-17 5.30244 -8.25007
150 1 Zr 0.250014 0.5 0.0833387 10.6206 -8.24903
151 2 N 0.250025 0.5 -6.97438e-17 5.30798 -6.52472
152 2 N 0.166686 0.5 0.0833438 10.6158 -6.52423
153 1 Zr 0.33335 0.5 -4.12975e-17 5.31028 -8.24949
154 1 Zr 0.416671 0.5 0.0833365 5.31175 -8.24906
155 2 N 0.416675 0.5 -7.46751e-17 5.31143 -6.52486
156 2 N 0.333343 0.5 0.0833382 5.31143 -6.52482
157 1 Zr 0.5 0.5 -6.82293e-17 5.31185 -8.24934
158 2 N 0.5 0.5 0.083337 5.31198 -6.5249
159 1 Zr 0.583329 0.5 0.0833365 5.31175 -8.24906
160 1 Zr 0.66665 0.5 -6.45604e-17 5.31028 -8.24949
161 2 N 0.583325 0.5 -2.36267e-17 5.31143 -6.52486
162 2 N 0.666657 0.5 0.0833382 5.31143 -6.52482
163 1 Zr 0.749986 0.5 0.0833387 10.6206 -8.24903
164 1 Zr 0.833306 0.5 -4.46675e-17 5.30244 -8.25007
165 2 N 0.749975 0.5 -2.72195e-17 5.30798 -6.52472
166 2 N 0.833314 0.5 0.0833438 10.6158 -6.52423
167 1 Zr 0.916653 0.5 0.0833469 5.30244 -8.24971
168 2 N 0.916642 0.5 -5.42676e-17 5.29639 -6.52435
169 1 Zr 0.0833601 0.58325 -6.44997e-17 10.5772 -8.25125
170 1 Zr -7.52579e-17 0.58325 0.0833601 10.5772 -8.25125
171 1 Zr -7.82041e-17 0.666283 -7.16515e-17 15.7489 -8.25768
172 1 Zr 0.0833485 0.666614 0.0833485 0.000189859 -8.24847
173 2 N -9.5621e-17 0.583203 -3.56579e-17 5.29037 -6.52581
174 2 N 0.0833933 0.666481 -8.82543e-17 10.5274 -6.52392
175 2 N 0.0833523 0.583293 0.0833523 5.29827 -6.52352
176 2 N -6.92843e-17 0.666481 0.0833933 10.5274 -6.52392
177 1 Zr 0.250028 0.583312 -4.42562e-17 10.6132 -8.24985
178 1 Zr 0.166683 0.583323 0.0833421 5.3037 -8.24897
179 1 Zr 0.166723 0.666574 -5.87581e-17 10.5783 -8.25114
180 1 Zr 0.250008 0.666666 0.0833395 5.30282 -8.24846
181 2 N 0.166703 0.583294 -8.15379e-17 10.6009 -6.52446
182 2 N 0.250046 0.666621 -8.33647e-17 10.6029 -6.52466
183 2 N 0.250014 0.583329 0.0833406 5.30831 -6.52462
184 2 N 0.166683 0.666653 0.083347 5.24346e-05 -6.52366
185 1 Zr 0.416676 0.583324 -5.12248e-17 5.3108 -8.24944
186 1 Zr 0.333342 0.58333 0.0833374 5.31017 -8.24898
187 1 Zr 0.333361 0.666639 -9.04531e-17 10.614 -8.24996
188 1 Zr 0.41667 0.666658 0.0833374 5.31017 -8.24898
189 2 N 0.333352 0.583321 -2.68645e-17 5.30928 -6.52482
190 2 N 0.416679 0.666648 -6.21909e-17 5.30928 -6.52482
191 2 N 0.416671 0.583329 0.0833376 5.31133 -6.5249
192 2 N 0.333338 0.666662 0.08334 5.50698e-06 -6.52503
193 1 Zr 0.5 0.583329 0.0833365 5.31175 -8.24906
194 1 Zr 0.5 0.66665 -5.43906e-17 5.31028 -8.24949
195 2 N 0.5 0.583325 -3.27869e-17 5.31143 -6.52486
196 2 N 0.5 0.666657 0.0833382 5.31143 -6.52482
197 1 Zr 0.583324 0.583324 -4.89402e-17 5.3108 -8.24944
198 1 Zr 0.666658 0.58333 0.0833374 5.31017 -8.24898
199 1 Zr 0.58333 0.666658 0.0833374 5.31017 -8.24898
200 1 Zr 0.666639 0.666639 -5.28357e-17 10.614 -8.24996
201 2 N 0.666648 0.583321 -3.91318e-17 5.30928 -6.52482
202 2 N 0.583321 0.666648 -5.26058e-17 5.30928 -6.52482
203 2 N 0.583329 0.583329 0.0833376 5.31133 -6.5249
204 2 N 0.666662 0.666662 0.08334 5.50698e-06 -6.52503
205 1 Zr 0.749972 0.583312 -3.74821e-17 10.6132 -8.24985
206 1 Zr 0.833317 0.583323 0.0833421 5.3037 -8.24897
207 1 Zr 0.749992 0.666666 0.0833395 5.30282 -8.24846
208 1 Zr 0.833277 0.666574 -7.70514e-17 10.5783 -8.25114
209 2 N 0.833297 0.583294 -7.93956e-17 10.6009 -6.52446
210 2 N 0.749954 0.666621 -8.99296e-17 10.6029 -6.52466
211 2 N 0.749986 0.583329 0.0833406 5.30831 -6.52462
212 2 N 0.833317 0.666653 0.083347 5.24346e-05 -6.52366
213 1 Zr 0.91664 0.58325 -8.74758e-17 10.5772 -8.25125
214 1 Zr 0.916652 0.666614 0.0833485 0.000189859 -8.24847
215 2 N 0.916607 0.666481 -7.101e-17 10.5274 -6.52392
216 2 N 0.916648 0.583293 0.0833523 5.29827 -6.52352
217 1 Zr 0.0834404 0.749646 -6.25354e-17 10.3504 -8.25558
218 1 Zr -6.85249e-17 0.749646 0.0834404 10.3504 -8.25558
219 1 Zr -6.9381e-17 0.831184 -5.43584e-17 14.7383 -8.31516
220 1 Zr 0.0832447 0.833652 0.0832447 10.327 -8.22239
221 2 N -5.11744e-17 0.749222 -4.5686e-17 10.372 -6.53923
222 2 N 0.0838582 0.832654 -4.33727e-17 9.70349 -6.47462
223 2 N 0.0833549 0.749941 0.0833549 5.24768 -6.51623
224 2 N -3.34717e-17 0.832654 0.0838582 9.70349 -6.47462
225 1 Zr 0.250083 0.749917 -4.23304e-17 10.5799 -8.25228
226 1 Zr 0.166653 0.750038 0.0833413 10.5558 -8.24547
227 1 Zr 0.166937 0.833063 -8.05946e-17 15.6551 -8.26319
228 1 Zr 0.249962 0.833347 0.0833413 10.5558 -8.24547
229 2 N 0.166804 0.749841 -5.06832e-17 10.5266 -6.52275
230 2 N 0.250159 0.833196 -3.0581e-17 10.5266 -6.52275
231 2 N 0.249984 0.750016 0.0833469 10.5835 -6.52627
232 2 N 0.166493 0.833507 0.0833708 10.4085 -6.53551
233 1 Zr 0.416688 0.749972 -7.51731e-17 10.6132 -8.24985
234 1 Zr 0.333334 0.749992 0.0833395 5.30282 -8.24846
235 1 Zr 0.333426 0.833277 -4.96503e-17 10.5783 -8.25114
236 1 Zr 0.416677 0.833317 0.0833421 5.3037 -8.24897
237 2 N 0.333379 0.749954 -5.88891e-17 10.6029 -6.52466
238 2 N 0.416706 0.833297 -8.76818e-17 10.6009 -6.52446
239 2 N 0.416671 0.749986 0.0833406 5.30831 -6.52462
240 2 N 0.333347 0.833317 0.083347 5.24346e-05 -6.52366
241 1 Zr 0.5 0.749986 0.0833387 10.6206 -8.24903
242 1 Zr 0.5 0.833306 -4.60111e-17 5.30244 -8.25007
243 2 N 0.5 0.749975 -4.68792e-17 5.30798 -6.52472
244 2 N 0.5 0.833314 0.0833438 10.6158 -6.52423
245 1 Zr 0.583312 0.749972 -4.74077e-17 10.6132 -8.24985
246 1 Zr 0.666666 0.749992 0.0833395 5.30282 -8.24846
247 1 Zr 0.583323 0.833317 0.0833421 5.3037 -8.24897
248 1 Zr 0.666574 0.833277 -5.20829e-17 10.5783 -8.25114
249 2 N 0.666621 0.749954 -3.08396e-17 10.6029 -6.52466
250 2 N 0.583294 0.833297 -9.6892e-17 10.6009 -6.52446
251 2 N 0.583329 0.749986 0.0833406 5.30831 -6.52462
252 2 N 0.666653 0.833317 0.083347 5.24346e-05 -6.52366
253 1 Zr 0.749917 0.749917 -6.89362e-17 10.5799 -8.25228
254 1 Zr 0.833347 0.750038 0.0833413 10.5558 -8.24547
255 1 Zr 0.750038 0.833347 0.0833413 10.5558 -8.24547
256 1 Zr 0.833063 0.833063 -6.41975e-17 15.6551 -8.26319
257 2 N 0.833196 0.749841 -6.56734e-17 10.5266 -6.52275
258 2 N 0.749841 0.833196 -3.65466e-17 10.5266 -6.52275
259 2 N 0.750016 0.750016 0.0833469 10.5835 -6.52627
260 2 N 0.833507 0.833507 0.0833708 10.4085 -6.53551
261 1 Zr 0.91656 0.749646 -7.99033e-17 10.3504 -8.25558
262 1 Zr 0.916755 0.833652 0.0832447 10.327 -8.22239
263 2 N 0.916142 0.832654 -5.73759e-17 9.70349 -6.47462
264 2 N 0.916645 0.749941 0.0833549 5.24768 -6.51623
265 1 Zr 0.0834493 0.916551 -7.28608e-17 5.17445 -8.26125
266 1 Zr -5.36464e-17 0.916551 0.0834493 5.17445 -8.26125
267 2 N -2.54612e-17 0.909433 -2.37693e-17 11.6757 -6.3678
268 2 N 0.0819537 0.918046 0.0819537 14.9611 -6.55593
269 1 Zr 0.250354 0.91656 -6.37217e-17 10.3504 -8.25558
270 1 Zr 0.166348 0.916755 0.0832447 10.327 -8.22239
271 2 N 0.167346 0.916142 -8.35104e-17 9.70349 -6.47462
272 2 N 0.250059 0.916645 0.0833549 5.24768 -6.51623
273 1 Zr 0.41675 0.91664 -8.22754e-17 10.5772 -8.25125
274 1 Zr 0.333386 0.916652 0.0833485 0.000189859 -8.24847
275 2 N 0.333519 0.916607 -8.94153e-17 10.5274 -6.52392
276 2 N 0.416707 0.916648 0.0833523 5.29827 -6.52352
277 1 Zr 0.5 0.916653 0.0833469 5.30244 -8.24971
278 2 N 0.5 0.916642 -6.2593e-17 5.29639 -6.52435
279 1 Zr 0.58325 0.91664 -9.17058e-17 10.5772 -8.25125
280 1 Zr 0.666614 0.916652 0.0833485 0.000189859 -8.24847
281 2 N 0.666481 0.916607 -8.01459e-17 10.5274 -6.52392
282 2 N 0.583293 0.916648 0.0833523 5.29827 -6.52352
283 1 Zr 0.749646 0.91656 -8.14527e-17 10.3504 -8.25558
284 1 Zr 0.833652 0.916755 0.0832447 10.327 -8.22239
285 2 N 0.832654 0.916142 -7.31432e-17 9.70349 -6.47462
286 2 N 0.749941 0.916645 0.0833549 5.24768 -6.51623
287 1 Zr 0.916551 0.916551 -5.57658e-17 5.17445 -8.26125
288 2 N 0.918046 0.918046 0.0819537 10.0197 -6.55593
289 1 Zr -7.295e-17 -5.67735e-17 0.168816 14.7383 -8.31516
290 1 Zr 0.0832447 0.0832447 0.166348 10.327 -8.22239
291 1 Zr 0.0834404 -3.19367e-17 0.250354 10.3504 -8.25558
292 1 Zr -4.29217e-17 0.0834404 0.250354 10.3504 -8.25558
293 2 N 0.0838582 -6.60021e-17 0.167346 9.70349 -6.47462
294 2 N -3.93867e-17 0.0838582 0.167346 9.70349 -6.47462
295 2 N -4.31036e-17 -7.13825e-17 0.250778 15.5547 -6.53923
296 2 N 0.0833549 0.0833549 0.250059 5.24768 -6.51623
297 1 Zr 0.166937 -7.30971e-17 0.166937 15.6551 -8.26319
298 1 Zr 0.249962 0.0833413 0.166653 10.5558 -8.24547
299 1 Zr 0.250083 -5.75299e-17 0.250083 10.5799 -8.25228
300 1 Zr 0.166653 0.0833413 0.249962 10.5558 -8.24547
301 2 N 0.250159 -5.17526e-17 0.166804 10.5266 -6.52275
302 2 N 0.166493 0.0833708 0.166493 10.4085 -6.53551
303 2 N 0.166804 -7.4087e-17 0.250159 10.5266 -6.52275
304 2 N 0.249984 0.0833469 0.249984 10.5835 -6.52627
305 1 Zr 0.333426 -8.53009e-17 0.166723 10.5783 -8.25114
306 1 Zr 0.416677 0.0833421 0.166683 5.3037 -8.24897
307 1 Zr 0.416688 -4.87189e-17 0.250028 10.6132 -8.24985
308 1 Zr 0.333334 0.0833395 0.250008 5.30282 -8.24846
309 2 N 0.416706 -8.29537e-17 0.166703 10.6009 -6.52446
310 2 N 0.333347 0.083347 0.166683 5.24346e-05 -6.52366
311 2 N 0.333379 -8.39737e-17 0.250046 10.6029 -6.52466
312 2 N 0.416671 0.0833406 0.250014 5.30831 -6.52462
313 1 Zr 0.5 -4.76412e-17 0.166694 5.30244 -8.25007
314 1 Zr 0.5 0.0833387 0.250014 10.6206 -8.24903
315 2 N 0.5 0.0833438 0.166686 10.6158 -6.52423
316 2 N 0.5 -9.9225e-17 0.250025 5.30798 -6.52472
317 1 Zr 0.583323 0.0833421 0.166683 5.3037 -8.24897
318 1 Zr 0.583312 -9.55883e-17 0.250028 10.6132 -8.24985
319 1 Zr 0.666574 -5.60722e-17 0.166723 10.5783 -8.25114
320 1 Zr 0.666666 0.0833395 0.250008 5.30282 -8.24846
321 2 N 0.583294 -1.1526e-16 0.166703 10.6009 -6.52446
322 2 N 0.666653 0.083347 0.166683 5.24346e-05 -6.52366
323 2 N 0.583329 0.0833406 0.250014 5.30831 -6.52462
324 2 N 0.666621 -7.82557e-17 0.250046 10.6029 -6.52466
325 1 Zr 0.750038 0.0833413 0.166653 10.5558 -8.24547
326 1 Zr 0.749917 -3.95431e-17 0.250083 10.5799 -8.25228
327 1 Zr 0.833063 -2.60679e-17 0.166937 15.6551 -8.26319
328 1 Zr 0.833347 0.0833413 0.249962 10.5558 -8.24547
329 2 N 0.749841 -1.99915e-17 0.166804 10.5266 -6.52275
330 2 N 0.833507 0.0833708 0.166493 10.4085 -6.53551
331 2 N 0.750016 0.0833469 0.249984 10.5835 -6.52627
332 2 N 0.833196 -2.06504e-17 0.250159 10.5266 -6.52275
333 1 Zr 0.916755 0.0832447 0.166348 10.327 -8.22239
334 1 Zr 0.91656 -7.06182e-17 0.250354 10.3504 -8.25558
335 2 N 0.916142 -7.33392e-17 0.167346 9.70349 -6.47462
336 2 N 0.916645 0.0833549 0.250059 5.24768 -6.51623
337 1 Zr -6.74869e-17 0.166937 0.166937 15.6551 -8.26319
338 1 Zr 0.0833413 0.249962 0.166653 10.5558 -8.24547
339 1 Zr 0.0833413 0.166653 0.249962 10.5558 -8.24547
340 1 Zr -4.57421e-17 0.250083 0.250083 10.5799 -8.25228
341 2 N 0.0833708 0.166493 0.166493 10.4085 -6.53551
342 2 N -6.99131e-17 0.250159 0.166804 10.5266 -6.52275
343 2 N -7.37962e-17 0.166804 0.250159 10.5266 -6.52275
344 2 N 0.0833469 0.249984 0.249984 10.5835 -6.52627
345 1 Zr 0.166663 0.166663 0.166663 0.000135226 -8.25268
346 1 Zr 0.249999 0.249999 0.16667 9.92011e-07 -8.24901
347 1 Zr 0.249999 0.16667 0.249999 9.92011e-07 -8.24901
348 1 Zr 0.16667 0.249999 0.249999 9.92011e-07 -8.24901
349 2 N 0.249979 0.166663 0.166663 5.30893 -6.52652
350 2 N 0.166663 0.249979 0.166663 5.30893 -6.52652
351 2 N 0.166663 0.166663 0.249979 5.30893 -6.52652
352 2 N 0.250001 0.250001 0.250001 1.0299e-07 -6.52523
353 1 Zr 0.333331 0.166674 0.166674 5.31079 -8.24871
354 1 Zr 0.416667 0.250007 0.166673 5.31224 -8.24891
355 1 Zr 0.416667 0.166673 0.250007 5.31224 -8.24891
356 1 Zr 0.333334 0.250004 0.250004 5.37311e-08 -8.24893
357 2 N 0.416668 0.166677 0.166677 1.44312e-06 -6.52472
358 2 N 0.333331 0.250004 0.166672 5.31152 -6.52522
359 2 N 0.333331 0.166672 0.250004 5.31152 -6.52522
360 2 N 0.416667 0.250005 0.250005 5.11062e-08 -6.52506
361 1 Zr 0.5 0.166677 0.166677 10.6234 -8.24893
362 1 Zr 0.5 0.250005 0.250005 10.6251 -8.24893
363 2 N 0.5 0.250008 0.166674 10.6245 -6.52491
364 2 N 0.5 0.166674 0.250008 10.6245 -6.52491
365 1 Zr 0.583333 0.250007 0.166673 5.31224 -8.24891
366 1 Zr 0.583333 0.166673 0.250007 5.31224 -8.24891
367 1 Zr 0.666669 0.166674 0.166674 5.31079 -8.24871
368 1 Zr 0.666666 0.250004 0.250004 5.37311e-08 -8.24893
369 2 N 0.583332 0.166677 0.166677 1.44312e-06 -6.52472
370 2 N 0.666669 0.250004 0.166672 5.31152 -6.52522
371 2 N 0.583333 0.250005 0.250005 5.11062e-08 -6.52506
372 2 N 0.666669 0.166672 0.250004 5.31152 -6.52522
373 1 Zr 0.750001 0.249999 0.16667 9.92011e-07 -8.24901
374 1 Zr 0.750001 0.16667 0.249999 9.92011e-07 -8.24901
375 1 Zr 0.833337 0.166663 0.166663 0.000135226 -8.25268
376 1 Zr 0.83333 0.249999 0.249999 9.92011e-07 -8.24901
377 2 N 0.750021 0.166663 0.166663 5.30893 -6.52652
378 2 N 0.833337 0.249979 0.166663 5.30893 -6.52652
379 2 N 0.749999 0.250001 0.250001 1.0299e-07 -6.52523
380 2 N 0.833337 0.166663 0.249979 5.30893 -6.52652
381 1 Zr 0.916659 0.249962 0.166653 10.5558 -8.24547
382 1 Zr 0.916659 0.166653 0.249962 10.5558 -8.24547
383 2 N 0.916629 0.166493 0.166493 10.4085 -6.53551
384 2 N 0.916653 0.249984 0.249984 10.5835 -6.52627
385 1 Zr -6.85775e-17 0.333426 0.166723 10.5783 -8.25114
386 1 Zr 0.0833421 0.416677 0.166683 5.3037 -8.24897
387 1 Zr 0.0833395 0.333334 0.250008 5.30282 -8.24846
388 1 Zr -3.42838e-17 0.416688 0.250028 10.6132 -8.24985
389 2 N 0.083347 0.333347 0.166683 5.24346e-05 -6.52366
390 2 N -3.09329e-17 0.416706 0.166703 10.6009 -6.52446
391 2 N -2.97251e-17 0.333379 0.250046 10.6029 -6.52466
392 2 N 0.0833406 0.416671 0.250014 5.30831 -6.52462
393 1 Zr 0.166674 0.333331 0.166674 5.31079 -8.24871
394 1 Zr 0.250007 0.416667 0.166673 5.31224 -8.24891
395 1 Zr 0.250004 0.333334 0.250004 5.37311e-08 -8.24893
396 1 Zr 0.166673 0.416667 0.250007 5.31224 -8.24891
397 2 N 0.250004 0.333331 0.166672 5.31152 -6.52522
398 2 N 0.166677 0.416668 0.166677 1.44312e-06 -6.52472
399 2 N 0.166672 0.333331 0.250004 5.31152 -6.52522
400 2 N 0.250005 0.416667 0.250005 5.11062e-08 -6.52506
401 1 Zr 0.333336 0.333336 0.166672 5.74214e-08 -8.24896
402 1 Zr 0.416669 0.416669 0.166671 5.31236 -8.24899
403 1 Zr 0.416668 0.333337 0.250004 5.31254 -8.24895
404 1 Zr 0.333337 0.416668 0.250004 5.31254 -8.24895
405 2 N 0.416668 0.333338 0.166672 5.31206 -6.52501
406 2 N 0.333338 0.416668 0.166672 5.31206 -6.52501
407 2 N 0.333336 0.333336 0.250004 10.6254 -6.52506
408 2 N 0.416668 0.416668 0.250004 5.31266 -6.52503
409 1 Zr 0.5 0.333339 0.166671 10.6248 -8.24897
410 1 Zr 0.5 0.416668 0.250004 10.6253 -8.24896
411 2 N 0.5 0.416669 0.166671 10.6248 -6.52498
412 2 N 0.5 0.333337 0.250004 10.6252 -6.52504
413 1 Zr 0.583331 0.416669 0.166671 5.31236 -8.24899
414 1 Zr 0.583332 0.333337 0.250004 5.31254 -8.24895
415 1 Zr 0.666664 0.333336 0.166672 5.74214e-08 -8.24896
416 1 Zr 0.666663 0.416668 0.250004 5.31254 -8.24895
417 2 N 0.583332 0.333338 0.166672 5.31206 -6.52501
418 2 N 0.666662 0.416668 0.166672 5.31206 -6.52501
419 2 N 0.583332 0.416668 0.250004 5.31266 -6.52503
420 2 N 0.666664 0.333336 0.250004 10.6254 -6.52506
421 1 Zr 0.749993 0.416667 0.166673 5.31224 -8.24891
422 1 Zr 0.749996 0.333334 0.250004 5.37311e-08 -8.24893
423 1 Zr 0.833326 0.333331 0.166674 5.31079 -8.24871
424 1 Zr 0.833327 0.416667 0.250007 5.31224 -8.24891
425 2 N 0.749996 0.333331 0.166672 5.31152 -6.52522
426 2 N 0.833323 0.416668 0.166677 1.44312e-06 -6.52472
427 2 N 0.749995 0.416667 0.250005 5.11062e-08 -6.52506
428 2 N 0.833328 0.333331 0.250004 5.31152 -6.52522
429 1 Zr 0.916658 0.416677 0.166683 5.3037 -8.24897
430 1 Zr 0.916661 0.333334 0.250008 5.30282 -8.24846
431 2 N 0.916653 0.333347 0.166683 5.24346e-05 -6.52366
432 2 N 0.916659 0.416671 0.250014 5.30831 -6.52462
433 1 Zr -4.9448e-17 0.5 0.166694 5.30244 -8.25007
434 1 Zr 0.0833387 0.5 0.250014 10.6206 -8.24903
435 2 N 0.0833438 0.5 0.166686 10.6158 -6.52423
436 2 N -6.60057e-17 0.5 0.250025 5.30798 -6.52472
437 1 Zr 0.166677 0.5 0.166677 10.6234 -8.24893
438 1 Zr 0.250005 0.5 0.250005 10.6251 -8.24893
439 2 N 0.250008 0.5 0.166674 10.6245 -6.52491
440 2 N 0.166674 0.5 0.250008 10.6245 -6.52491
441 1 Zr 0.333339 0.5 0.166671 10.6248 -8.24897
442 1 Zr 0.416668 0.5 0.250004 10.6253 -8.24896
443 2 N 0.416669 0.5 0.166671 10.6248 -6.52498
444 2 N 0.333337 0.5 0.250004 10.6252 -6.52504
445 1 Zr 0.5 0.5 0.166671 5.31246 -8.249
446 2 N 0.5 0.5 0.250004 15.9381 -6.52502
447 1 Zr 0.583332 0.5 0.250004 10.6253 -8.24896
448 1 Zr 0.666661 0.5 0.166671 10.6248 -8.24897
449 2 N 0.583331 0.5 0.166671 10.6248 -6.52498
450 2 N 0.666663 0.5 0.250004 10.6252 -6.52504
451 1 Zr 0.749995 0.5 0.250005 10.6251 -8.24893
452 1 Zr 0.833323 0.5 0.166677 10.6234 -8.24893
453 2 N 0.749992 0.5 0.166674 10.6245 -6.52491
454 2 N 0.833326 0.5 0.250008 10.6245 -6.52491
455 1 Zr 0.916661 0.5 0.250014 10.6206 -8.24903
456 2 N 0.916656 0.5 0.166686 10.6158 -6.52423
457 1 Zr 0.0833421 0.583323 0.166683 5.3037 -8.24897
458 1 Zr -5.73862e-17 0.583312 0.250028 10.6132 -8.24985
459 1 Zr -7.81135e-17 0.666574 0.166723 10.5783 -8.25114
460 1 Zr 0.0833395 0.666666 0.250008 5.30282 -8.24846
461 2 N -3.82626e-17 0.583294 0.166703 10.6009 -6.52446
462 2 N 0.083347 0.666653 0.166683 5.24346e-05 -6.52366
463 2 N 0.0833406 0.583329 0.250014 5.30831 -6.52462
464 2 N -7.60209e-17 0.666621 0.250046 10.6029 -6.52466
465 1 Zr 0.250007 0.583333 0.166673 5.31224 -8.24891
466 1 Zr 0.166673 0.583333 0.250007 5.31224 -8.24891
467 1 Zr 0.166674 0.666669 0.166674 5.31079 -8.24871
468 1 Zr 0.250004 0.666666 0.250004 5.37311e-08 -8.24893
469 2 N 0.166677 0.583332 0.166677 1.44312e-06 -6.52472
470 2 N 0.250004 0.666669 0.166672 5.31152 -6.52522
471 2 N 0.250005 0.583333 0.250005 5.11062e-08 -6.52506
472 2 N 0.166672 0.666669 0.250004 5.31152 -6.52522
473 1 Zr 0.416669 0.583331 0.166671 5.31236 -8.24899
474 1 Zr 0.333337 0.583332 0.250004 5.31254 -8.24895
475 1 Zr 0.333336 0.666664 0.166672 5.74214e-08 -8.24896
476 1 Zr 0.416668 0.666663 0.250004 5.31254 -8.24895
477 2 N 0.333338 0.583332 0.166672 5.31206 -6.52501
478 2 N 0.416668 0.666662 0.166672 5.31206 -6.52501
479 2 N 0.416668 0.583332 0.250004 5.31266 -6.52503
480 2 N 0.333336 0.666664 0.250004 10.6254 -6.52506
481 1 Zr 0.5 0.583332 0.250004 10.6253 -8.24896
482 1 Zr 0.5 0.666661 0.166671 10.6248 -8.24897
483 2 N 0.5 0.583331 0.166671 10.6248 -6.52498
484 2 N 0.5 0.666663 0.250004 10.6252 -6.52504
485 1 Zr 0.583331 0.583331 0.166671 5.31236 -8.24899
486 1 Zr 0.666663 0.583332 0.250004 5.31254 -8.24895
487 1 Zr 0.583332 0.666663 0.250004 5.31254 -8.24895
488 1 Zr 0.666664 0.666664 0.166672 5.74214e-08 -8.24896
489 2 N 0.666662 0.583332 0.166672 5.31206 -6.52501
490 2 N 0.583332 0.666662 0.166672 5.31206 -6.52501
491 2 N 0.583332 0.583332 0.250004 5.31266 -6.52503
492 2 N 0.666664 0.666664 0.250004 10.6254 -6.52506
493 1 Zr 0.749993 0.583333 0.166673 5.31224 -8.24891
494 1 Zr 0.833327 0.583333 0.250007 5.31224 -8.24891
495 1 Zr 0.749996 0.666666 0.250004 5.37311e-08 -8.24893
496 1 Zr 0.833326 0.666669 0.166674 5.31079 -8.24871
497 2 N 0.833323 0.583332 0.166677 1.44312e-06 -6.52472
498 2 N 0.749996 0.666669 0.166672 5.31152 -6.52522
499 2 N 0.749995 0.583333 0.250005 5.11062e-08 -6.52506
500 2 N 0.833328 0.666669 0.250004 5.31152 -6.52522
501 1 Zr 0.916658 0.583323 0.166683 5.3037 -8.24897
502 1 Zr 0.916661 0.666666 0.250008 5.30282 -8.24846
503 2 N 0.916653 0.666653 0.166683 5.24346e-05 -6.52366
504 2 N 0.916659 0.583329 0.250014 5.30831 -6.52462
505 1 Zr 0.0833413 0.750038 0.166653 10.5558 -8.24547
506 1 Zr -5.91927e-17 0.749917 0.250083 10.5799 -8.25228
507 1 Zr -4.02931e-17 0.833063 0.166937 15.6551 -8.26319
508 1 Zr 0.0833413 0.833347 0.249962 10.5558 -8.24547
509 2 N -4.22297e-17 0.749841 0.166804 10.5266 -6.52275
510 2 N 0.0833708 0.833507 0.166493 10.4085 -6.53551
511 2 N 0.0833469 0.750016 0.249984 10.5835 -6.52627
512 2 N -3.13602e-17 0.833196 0.250159 10.5266 -6.52275
513 1 Zr 0.249999 0.750001 0.16667 9.92011e-07 -8.24901
514 1 Zr 0.16667 0.750001 0.249999 9.92011e-07 -8.24901
515 1 Zr 0.166663 0.833337 0.166663 0.000135226 -8.25268
516 1 Zr 0.249999 0.83333 0.249999 9.92011e-07 -8.24901
517 2 N 0.166663 0.750021 0.166663 5.30893 -6.52652
518 2 N 0.249979 0.833337 0.166663 5.30893 -6.52652
519 2 N 0.250001 0.749999 0.250001 1.0299e-07 -6.52523
520 2 N 0.166663 0.833337 0.249979 5.30893 -6.52652
521 1 Zr 0.416667 0.749993 0.166673 5.31224 -8.24891
522 1 Zr 0.333334 0.749996 0.250004 5.37311e-08 -8.24893
523 1 Zr 0.333331 0.833326 0.166674 5.31079 -8.24871
524 1 Zr 0.416667 0.833327 0.250007 5.31224 -8.24891
525 2 N 0.333331 0.749996 0.166672 5.31152 -6.52522
526 2 N 0.416668 0.833323 0.166677 1.44312e-06 -6.52472
527 2 N 0.416667 0.749995 0.250005 5.11062e-08 -6.52506
528 2 N 0.333331 0.833328 0.250004 5.31152 -6.52522
529 1 Zr 0.5 0.749995 0.250005 10.6251 -8.24893
530 1 Zr 0.5 0.833323 0.166677 10.6234 -8.24893
531 2 N 0.5 0.749992 0.166674 10.6245 -6.52491
532 2 N 0.5 0.833326 0.250008 10.6245 -6.52491
533 1 Zr 0.583333 0.749993 0.166673 5.31224 -8.24891
534 1 Zr 0.666666 0.749996 0.250004 5.37311e-08 -8.24893
535 1 Zr 0.583333 0.833327 0.250007 5.31224 -8.24891
536 1 Zr 0.666669 0.833326 0.166674 5.31079 -8.24871
537 2 N 0.666669 0.749996 0.166672 5.31152 -6.52522
538 2 N 0.583332 0.833323 0.166677 1.44312e-06 -6.52472
539 2 N 0.583333 0.749995 0.250005 5.11062e-08 -6.52506
540 2 N 0.666669 0.833328 0.250004 5.31152 -6.52522
541 1 Zr 0.750001 0.750001 0.16667 9.92011e-07 -8.24901
542 1 Zr 0.83333 0.750001 0.249999 9.92011e-07 -8.24901
543 1 Zr 0.750001 0.83333 0.249999 9.92011e-07 -8.24901
544 1 Zr 0.833337 0.833337 0.166663 0.000135226 -8.25268
545 2 N 0.833337 0.750021 0.166663 5.30893 -6.52652
546 2 N 0.750021 0.833337 0.166663 5.30893 -6.52652
547 2 N 0.749999 0.749999 0.250001 1.0299e-07 -6.52523
548 2 N 0.833337 0.833337 0.249979 5.30893 -6.52652
549 1 Zr 0.916659 0.750038 0.166653 10.5558 -8.24547
550 1 Zr 0.916659 0.833347 0.249962 10.5558 -8.24547
551 2 N 0.916629 0.833507 0.166493 10.4085 -6.53551
552 2 N 0.916653 0.750016 0.249984 10.5835 -6.52627