ITEM: TIMESTEP
39
ITEM: NUMBER OF ATOMS
999
ITEM: BOX BOUNDS pp pp pp
0.0000000000000000e+00 2.3050000000000001e+01
0.0000000000000000e+00 2.3050000000000001e+01
0.0000000000000000e+00 2.3050000000000001e+01
ITEM: ATOMS id type element xs ys zs c_csym c_eng
2 1 Zr 0.100132 0.100132 3.15511e-17 5.17425 -8.26201
3 1 Zr 0.100132 2.84873e-17 0.100132 5.17425 -8.26201
4 1 Zr 8.37726e-18 0.100132 0.100132 5.17425 -8.26201
5 2 N 0.10867 3.49347e-17 -1.3602e-17 11.6743 -6.36731
6 2 N -2.54616e-17 0.10867 -2.82364e-17 11.6743 -6.36731
7 2 N -1.48799e-17 2.71894e-17 0.10867 11.6743 -6.36731
8 2 N 0.0983401 0.0983401 0.0983401 10.0193 -6.55539
9 1 Zr 0.202559 1.57124e-18 -1.57375e-17 14.7361 -8.31573
10 1 Zr 0.300392 0.10013 -1.25386e-17 10.3486 -8.25624
11 1 Zr 0.300392 -1.88404e-17 0.10013 10.3486 -8.25624
12 1 Zr 0.199605 0.099892 0.099892 10.3257 -8.22293
13 2 N 0.300892 -4.30761e-18 -9.48815e-18 15.553 -6.53886
14 2 N 0.200799 0.100628 -3.88401e-20 9.70191 -6.47416
15 2 N 0.200799 4.08762e-17 0.100628 9.70191 -6.47416
16 2 N 0.300048 0.100028 0.100028 5.2458 -6.51574
17 1 Zr 0.400374 -1.18481e-17 -1.06705e-17 15.7548 -8.25914
18 1 Zr 0.40003 0.100022 0.100022 5.27775 -8.24882
19 2 N 0.400167 0.10008 -1.10301e-18 10.5264 -6.52351
20 2 N 0.400167 -1.61393e-17 0.10008 10.5264 -6.52351
21 1 Zr 0.5 0.100049 -1.01132e-17 5.27349 -8.2526
22 1 Zr 0.5 -2.82074e-17 0.100049 5.27349 -8.2526
23 1 Zr 0.599626 -2.22837e-17 -1.67291e-17 15.7548 -8.25914
24 1 Zr 0.59997 0.100022 0.100022 5.27775 -8.24882
25 2 N 0.5 -3.35673e-17 -3.55114e-17 5.29529 -6.52658
26 2 N 0.599833 0.10008 2.50939e-18 10.5264 -6.52351
27 2 N 0.5 0.100032 0.100032 10.5906 -6.52246
28 2 N 0.599833 -1.32498e-17 0.10008 10.5264 -6.52351
29 1 Zr 0.699608 0.10013 -2.09193e-17 10.3486 -8.25624
30 1 Zr 0.699608 -1.91037e-17 0.10013 10.3486 -8.25624
31 1 Zr 0.797441 7.94107e-19 -1.25938e-18 14.7361 -8.31573
32 1 Zr 0.800395 0.099892 0.099892 10.3257 -8.22293
33 2 N 0.699108 -7.68327e-18 -7.67793e-18 15.553 -6.53886
34 2 N 0.799201 0.100628 1.99705e-17 9.70191 -6.47416
35 2 N 0.699952 0.100028 0.100028 5.2458 -6.51574
36 2 N 0.799201 2.51995e-17 0.100628 9.70191 -6.47416
37 1 Zr 0.899868 0.100132 2.30723e-17 5.17425 -8.26201
38 1 Zr 0.899868 2.29369e-17 0.100132 5.17425 -8.26201
39 2 N 0.89133 1.07332e-17 1.60164e-18 11.6743 -6.36731
40 2 N 0.90166 0.0983401 0.0983401 10.0193 -6.55539
41 1 Zr -2.64255e-17 0.202559 3.69524e-18 14.7361 -8.31573
42 1 Zr 0.10013 0.300392 -1.46363e-17 10.3486 -8.25624
43 1 Zr 0.099892 0.199605 0.099892 10.3257 -8.22293
44 1 Zr -3.64409e-17 0.300392 0.10013 10.3486 -8.25624
45 2 N 0.100628 0.200799 3.89837e-18 9.70191 -6.47416
46 2 N 1.54748e-18 0.300892 6.51223e-19 15.553 -6.53886
47 2 N -3.06455e-17 0.200799 0.100628 9.70191 -6.47416
48 2 N 0.100028 0.300048 0.100028 5.2458 -6.51574
49 1 Zr 0.200317 0.200317 3.61241e-18 15.6554 -8.26371
50 1 Zr 0.300093 0.300093 -1.63448e-17 10.5809 -8.25272
51 1 Zr 0.299945 0.199983 0.100011 10.5546 -8.24575
52 1 Zr 0.199983 0.299945 0.100011 10.5546 -8.24575
53 2 N 0.300174 0.200165 -1.92019e-17 10.5262 -6.52237
54 2 N 0.200165 0.300174 -1.86387e-17 10.5262 -6.52237
55 2 N 0.199787 0.199787 0.100045 10.4072 -6.53504
56 2 N 0.299978 0.299978 0.100019 10.5822 -6.52593
57 1 Zr 0.40008 0.200073 -1.13935e-17 10.5803 -8.25172
58 1 Zr 0.399995 0.300009 0.100009 5.30251 -8.24859
59 2 N 0.40004 0.300056 1.17196e-18 5.30028 -6.5244
60 2 N 0.400001 0.200023 0.10002 5.29562 -6.5232
61 1 Zr 0.5 0.300043 7.73571e-18 5.3045 -8.25055
62 1 Zr 0.5 0.200023 0.100014 10.609 -8.24886
63 1 Zr 0.59992 0.200073 -1.48682e-17 10.5803 -8.25172
64 1 Zr 0.600005 0.300009 0.100009 5.30251 -8.24859
65 2 N 0.5 0.200063 -2.93569e-17 5.29531 -6.52412
66 2 N 0.59996 0.300056 5.18764e-18 5.30028 -6.5244
67 2 N 0.5 0.300016 0.100013 10.6175 -6.52431
68 2 N 0.599999 0.200023 0.10002 5.29562 -6.5232
69 1 Zr 0.699907 0.300093 -1.53564e-17 10.5809 -8.25272
70 1 Zr 0.700055 0.199983 0.100011 10.5546 -8.24575
71 1 Zr 0.799683 0.200317 -3.98648e-17 15.6554 -8.26371
72 1 Zr 0.800017 0.299945 0.100011 10.5546 -8.24575
73 2 N 0.699826 0.200165 -3.42168e-17 10.5262 -6.52237
74 2 N 0.799835 0.300174 -4.30576e-17 10.5262 -6.52237
75 2 N 0.700022 0.299978 0.100019 10.5822 -6.52593
76 2 N 0.800213 0.199787 0.100045 10.4072 -6.53504
77 1 Zr 0.89987 0.300392 -1.90853e-17 10.3486 -8.25624
78 1 Zr 0.900108 0.199605 0.099892 10.3257 -8.22293
79 2 N 0.899372 0.200799 -4.18016e-18 9.70191 -6.47416
80 2 N 0.899972 0.300048 0.100028 5.2458 -6.51574
81 1 Zr -1.77782e-17 0.400374 -7.57572e-18 15.7548 -8.25914
82 1 Zr 0.100022 0.40003 0.100022 5.27775 -8.24882
83 2 N 0.10008 0.400167 -1.55331e-17 10.5264 -6.52351
84 2 N 3.44362e-18 0.400167 0.10008 10.5264 -6.52351
85 1 Zr 0.200073 0.40008 -1.89925e-17 10.5803 -8.25172
86 1 Zr 0.300009 0.399995 0.100009 5.30251 -8.24859
87 2 N 0.300056 0.40004 3.9353e-18 5.30028 -6.5244
88 2 N 0.200023 0.400001 0.10002 5.29562 -6.5232
89 1 Zr 0.400027 0.400027 3.33568e-17 5.3064 -8.25046
90 2 N 0.400003 0.400003 0.100011 5.33477e-06 -6.5248
91 1 Zr 0.5 0.400007 0.100007 10.6197 -8.24902
92 1 Zr 0.599973 0.400027 3.49276e-17 5.3064 -8.25046
93 2 N 0.5 0.400023 -4.80214e-18 5.30876 -6.5246
94 2 N 0.599997 0.400003 0.100011 5.33477e-06 -6.5248
95 1 Zr 0.699991 0.399995 0.100009 5.30251 -8.24859
96 1 Zr 0.799927 0.40008 -2.96763e-17 10.5803 -8.25172
97 2 N 0.699944 0.40004 -3.97274e-18 5.30028 -6.5244
98 2 N 0.799977 0.400001 0.10002 5.29562 -6.5232
99 1 Zr 0.899978 0.40003 0.100022 5.27775 -8.24882
100 2 N 0.89992 0.400167 6.11786e-19 10.5264 -6.52351
101 1 Zr 0.100049 0.5 -3.10058e-17 5.27349 -8.2526
102 1 Zr 5.23105e-18 0.5 0.100049 5.27349 -8.2526
103 1 Zr -1.17995e-17 0.599626 -2.3681e-17 15.7548 -8.25914
104 1 Zr 0.100022 0.59997 0.100022 5.27775 -8.24882
105 2 N -4.03569e-17 0.5 -5.49082e-17 5.29529 -6.52658
106 2 N 0.10008 0.599833 -9.65268e-18 10.5264 -6.52351
107 2 N 0.100032 0.5 0.100032 10.5906 -6.52246
108 2 N -5.23992e-18 0.599833 0.10008 10.5264 -6.52351
109 1 Zr 0.300043 0.5 -1.39435e-17 5.3045 -8.25055
110 1 Zr 0.200023 0.5 0.100014 10.609 -8.24886
111 1 Zr 0.200073 0.59992 -1.5018e-17 10.5803 -8.25172
112 1 Zr 0.300009 0.600005 0.100009 5.30251 -8.24859
113 2 N 0.200063 0.5 -4.88241e-17 5.29531 -6.52412
114 2 N 0.300056 0.59996 -6.49792e-20 5.30028 -6.5244
115 2 N 0.300016 0.5 0.100013 10.6175 -6.52431
116 2 N 0.200023 0.599999 0.10002 5.29562 -6.5232
117 1 Zr 0.400007 0.5 0.100007 10.6197 -8.24902
118 1 Zr 0.400027 0.599973 2.1068e-17 5.3064 -8.25046
119 2 N 0.400023 0.5 1.05715e-19 5.30876 -6.5246
120 2 N 0.400003 0.599997 0.100011 5.33477e-06 -6.5248
121 1 Zr 0.5 0.5 -1.80836e-17 5.3102 -8.25011
122 1 Zr 0.599993 0.5 0.100007 10.6197 -8.24902
123 1 Zr 0.5 0.599993 0.100007 10.6197 -8.24902
124 1 Zr 0.599973 0.599973 2.359e-17 5.3064 -8.25046
125 2 N 0.599977 0.5 -1.42937e-17 5.30876 -6.5246
126 2 N 0.5 0.599977 -9.8452e-18 5.30876 -6.5246
127 2 N 0.5 0.5 0.100009 15.9319 -6.52476
128 2 N 0.599997 0.599997 0.100011 5.33477e-06 -6.5248
129 1 Zr 0.699957 0.5 -1.64847e-17 5.3045 -8.25055
130 1 Zr 0.799977 0.5 0.100014 10.609 -8.24886
131 1 Zr 0.699991 0.600005 0.100009 5.30251 -8.24859
132 1 Zr 0.799927 0.59992 -2.20984e-17 10.5803 -8.25172
133 2 N 0.799937 0.5 -6.26375e-17 5.29531 -6.52412
134 2 N 0.699944 0.59996 -7.20503e-19 5.30028 -6.5244
135 2 N 0.699984 0.5 0.100013 10.6175 -6.52431
136 2 N 0.799977 0.599999 0.10002 5.29562 -6.5232
137 1 Zr 0.899951 0.5 -2.30064e-17 5.27349 -8.2526
138 1 Zr 0.899978 0.59997 0.100022 5.27775 -8.24882
139 2 N 0.89992 0.599833 -2.92546e-18 10.5264 -6.52351
140 2 N 0.899968 0.5 0.100032 10.5906 -6.52246
141 1 Zr 0.10013 0.699608 -1.80285e-17 10.3486 -8.25624
142 1 Zr -2.42251e-17 0.699608 0.10013 10.3486 -8.25624
143 1 Zr -2.10612e-17 0.797441 -5.01733e-18 14.7361 -8.31573
144 1 Zr 0.099892 0.800395 0.099892 10.3257 -8.22293
145 2 N -1.97467e-17 0.699108 -2.28548e-17 15.553 -6.53886
146 2 N 0.100628 0.799201 3.47909e-17 9.70191 -6.47416
147 2 N 0.100028 0.699952 0.100028 5.2458 -6.51574
148 2 N 1.41293e-17 0.799201 0.100628 9.70191 -6.47416
149 1 Zr 0.300093 0.699907 -1.78972e-17 10.5809 -8.25272
150 1 Zr 0.199983 0.700055 0.100011 10.5546 -8.24575
151 1 Zr 0.200317 0.799683 2.24513e-17 15.6554 -8.26371
152 1 Zr 0.299945 0.800017 0.100011 10.5546 -8.24575
153 2 N 0.200165 0.699826 -2.22708e-17 10.5262 -6.52237
154 2 N 0.300174 0.799835 -2.68131e-17 10.5262 -6.52237
155 2 N 0.299978 0.700022 0.100019 10.5822 -6.52593
156 2 N 0.199787 0.800213 0.100045 10.4072 -6.53504
157 1 Zr 0.399995 0.699991 0.100009 5.30251 -8.24859
158 1 Zr 0.40008 0.799927 -1.63077e-17 10.5803 -8.25172
159 2 N 0.40004 0.699944 -7.01618e-18 5.30028 -6.5244
160 2 N 0.400001 0.799977 0.10002 5.29562 -6.5232
161 1 Zr 0.5 0.699957 -1.94701e-17 5.3045 -8.25055
162 1 Zr 0.600005 0.699991 0.100009 5.30251 -8.24859
163 1 Zr 0.5 0.799977 0.100014 10.609 -8.24886
164 1 Zr 0.59992 0.799927 -3.30479e-17 10.5803 -8.25172
165 2 N 0.59996 0.699944 -5.03012e-17 5.30028 -6.5244
166 2 N 0.5 0.799937 -5.35694e-17 5.29531 -6.52412
167 2 N 0.5 0.699984 0.100013 10.6175 -6.52431
168 2 N 0.599999 0.799977 0.10002 5.29562 -6.5232
169 1 Zr 0.699907 0.699907 -3.10826e-17 10.5809 -8.25272
170 1 Zr 0.800017 0.700055 0.100011 10.5546 -8.24575
171 1 Zr 0.700055 0.800017 0.100011 10.5546 -8.24575
172 1 Zr 0.799683 0.799683 -2.97123e-18 15.6554 -8.26371
173 2 N 0.799835 0.699826 -2.41899e-17 10.5262 -6.52237
174 2 N 0.699826 0.799835 -2.7969e-17 10.5262 -6.52237
175 2 N 0.700022 0.700022 0.100019 10.5822 -6.52593
176 2 N 0.800213 0.800213 0.100045 10.4072 -6.53504
177 1 Zr 0.89987 0.699608 -2.59012e-17 10.3486 -8.25624
178 1 Zr 0.900108 0.800395 0.099892 10.3257 -8.22293
179 2 N 0.899372 0.799201 3.41941e-17 9.70191 -6.47416
180 2 N 0.899972 0.699952 0.100028 5.2458 -6.51574
181 1 Zr 0.100132 0.899868 6.41981e-18 5.17425 -8.26201
182 1 Zr -5.05543e-19 0.899868 0.100132 5.17425 -8.26201
183 2 N -3.656e-17 0.89133 -4.72619e-17 11.6743 -6.36731
184 2 N 0.0983401 0.90166 0.0983401 10.0193 -6.55539
185 1 Zr 0.300392 0.89987 -2.51059e-17 10.3486 -8.25624
186 1 Zr 0.199605 0.900108 0.099892 10.3257 -8.22293
187 2 N 0.200799 0.899372 3.53302e-17 9.70191 -6.47416
188 2 N 0.300048 0.899972 0.100028 5.2458 -6.51574
189 1 Zr 0.40003 0.899978 0.100022 5.27775 -8.24882
190 2 N 0.400167 0.89992 9.95755e-18 10.5264 -6.52351
191 1 Zr 0.5 0.899951 1.11246e-17 5.27349 -8.2526
192 1 Zr 0.59997 0.899978 0.100022 5.27775 -8.24882
193 2 N 0.599833 0.89992 3.47707e-18 10.5264 -6.52351
194 2 N 0.5 0.899968 0.100032 10.5906 -6.52246
195 1 Zr 0.699608 0.89987 -2.60482e-17 10.3486 -8.25624
196 1 Zr 0.800395 0.900108 0.099892 10.3257 -8.22293
197 2 N 0.799201 0.899372 2.28306e-17 9.70191 -6.47416
198 2 N 0.699952 0.899972 0.100028 5.2458 -6.51574
199 1 Zr 0.899868 0.899868 1.76328e-17 5.17425 -8.26201
200 2 N 0.90166 0.90166 0.0983401 14.9606 -6.55539
201 1 Zr 7.13644e-18 3.19811e-18 0.202559 14.7361 -8.31573
202 1 Zr 0.099892 0.099892 0.199605 10.3257 -8.22293
203 1 Zr 0.10013 -3.34445e-17 0.300392 10.3486 -8.25624
204 1 Zr -3.67488e-17 0.10013 0.300392 10.3486 -8.25624
205 2 N 0.100628 -7.23563e-18 0.200799 9.70191 -6.47416
206 2 N 2.15765e-17 0.100628 0.200799 9.70191 -6.47416
207 2 N -6.98572e-18 1.92964e-18 0.300892 15.553 -6.53886
208 2 N 0.100028 0.100028 0.300048 5.2458 -6.51574
209 1 Zr 0.200317 1.36654e-17 0.200317 15.6554 -8.26371
210 1 Zr 0.299945 0.100011 0.199983 10.5546 -8.24575
211 1 Zr 0.300093 -4.9508e-17 0.300093 10.5809 -8.25272
212 1 Zr 0.199983 0.100011 0.299945 10.5546 -8.24575
213 2 N 0.300174 -2.55781e-17 0.200165 10.5262 -6.52237
214 2 N 0.199787 0.100045 0.199787 10.4072 -6.53504
215 2 N 0.200165 -3.76038e-17 0.300174 10.5262 -6.52237
216 2 N 0.299978 0.100019 0.299978 10.5822 -6.52593
217 1 Zr 0.40008 -2.98315e-17 0.200073 10.5803 -8.25172
218 1 Zr 0.399995 0.100009 0.300009 5.30251 -8.24859
219 2 N 0.400001 0.10002 0.200023 5.29562 -6.5232
220 2 N 0.40004 -9.42818e-18 0.300056 5.30028 -6.5244
221 1 Zr 0.5 0.100014 0.200023 10.609 -8.24886
222 1 Zr 0.5 -1.50196e-17 0.300043 5.3045 -8.25055
223 1 Zr 0.59992 -2.26455e-17 0.200073 10.5803 -8.25172
224 1 Zr 0.600005 0.100009 0.300009 5.30251 -8.24859
225 2 N 0.5 -5.13414e-17 0.200063 5.29531 -6.52412
226 2 N 0.599999 0.10002 0.200023 5.29562 -6.5232
227 2 N 0.5 0.100013 0.300016 10.6175 -6.52431
228 2 N 0.59996 -4.34432e-17 0.300056 5.30028 -6.5244
229 1 Zr 0.700055 0.100011 0.199983 10.5546 -8.24575
230 1 Zr 0.699907 -5.26889e-17 0.300093 10.5809 -8.25272
231 1 Zr 0.799683 1.19914e-17 0.200317 15.6554 -8.26371
232 1 Zr 0.800017 0.100011 0.299945 10.5546 -8.24575
233 2 N 0.699826 -2.99763e-17 0.200165 10.5262 -6.52237
234 2 N 0.800213 0.100045 0.199787 10.4072 -6.53504
235 2 N 0.700022 0.100019 0.299978 10.5822 -6.52593
236 2 N 0.799835 -3.12342e-17 0.300174 10.5262 -6.52237
237 1 Zr 0.900108 0.099892 0.199605 10.3257 -8.22293
238 1 Zr 0.89987 -2.20213e-17 0.300392 10.3486 -8.25624
239 2 N 0.899372 3.4253e-17 0.200799 9.70191 -6.47416
240 2 N 0.899972 0.100028 0.300048 5.2458 -6.51574
241 1 Zr -5.37183e-17 0.200317 0.200317 15.6554 -8.26371
242 1 Zr 0.100011 0.299945 0.199983 10.5546 -8.24575
243 1 Zr 0.100011 0.199983 0.299945 10.5546 -8.24575
244 1 Zr -4.44175e-17 0.300093 0.300093 10.5809 -8.25272
245 2 N 0.100045 0.199787 0.199787 10.4072 -6.53504
246 2 N -3.91603e-17 0.300174 0.200165 10.5262 -6.52237
247 2 N -3.62313e-17 0.200165 0.300174 10.5262 -6.52237
248 2 N 0.100019 0.299978 0.299978 10.5822 -6.52593
249 1 Zr 0.199993 0.199993 0.199993 0.000136556 -8.25293
250 1 Zr 0.299998 0.299998 0.200006 1.08147e-06 -8.24913
251 1 Zr 0.299998 0.200006 0.299998 1.08147e-06 -8.24913
252 1 Zr 0.200006 0.299998 0.299998 1.08147e-06 -8.24913
253 2 N 0.299971 0.199997 0.199997 5.30879 -6.5262
254 2 N 0.199997 0.299971 0.199997 5.30879 -6.5262
255 2 N 0.199997 0.199997 0.299971 5.30879 -6.5262
256 2 N 0.300001 0.300001 0.300001 8.49827e-08 -6.52508
257 1 Zr 0.399992 0.200011 0.200011 5.31151 -8.24879
258 1 Zr 0.4 0.300005 0.300005 5.31235 -8.24902
259 2 N 0.399996 0.300005 0.200008 5.3111 -6.52506
260 2 N 0.399996 0.200008 0.300005 5.3111 -6.52506
261 1 Zr 0.5 0.300008 0.200009 10.6238 -8.24895
262 1 Zr 0.5 0.200009 0.300008 10.6238 -8.24895
263 1 Zr 0.600008 0.200011 0.200011 5.31151 -8.24879
264 1 Zr 0.6 0.300005 0.300005 5.31235 -8.24902
265 2 N 0.5 0.200014 0.200014 10.6233 -6.52455
266 2 N 0.600004 0.300005 0.200008 5.3111 -6.52506
267 2 N 0.5 0.300005 0.300005 10.6243 -6.52501
268 2 N 0.600004 0.200008 0.300005 5.3111 -6.52506
269 1 Zr 0.700002 0.299998 0.200006 1.08147e-06 -8.24913
270 1 Zr 0.700002 0.200006 0.299998 1.08147e-06 -8.24913
271 1 Zr 0.800007 0.199993 0.199993 0.000136556 -8.25293
272 1 Zr 0.799994 0.299998 0.299998 1.08147e-06 -8.24913
273 2 N 0.700029 0.199997 0.199997 5.30879 -6.5262
274 2 N 0.800003 0.299971 0.199997 5.30879 -6.5262
275 2 N 0.699999 0.300001 0.300001 8.49827e-08 -6.52508
276 2 N 0.800003 0.199997 0.299971 5.30879 -6.5262
277 1 Zr 0.899989 0.299945 0.199983 10.5546 -8.24575
278 1 Zr 0.899989 0.199983 0.299945 10.5546 -8.24575
279 2 N 0.899955 0.199787 0.199787 10.4072 -6.53504
280 2 N 0.899981 0.299978 0.299978 10.5822 -6.52593
281 1 Zr -2.09113e-17 0.40008 0.200073 10.5803 -8.25172
282 1 Zr 0.100009 0.399995 0.300009 5.30251 -8.24859
283 2 N 0.10002 0.400001 0.200023 5.29562 -6.5232
284 2 N -9.07339e-18 0.40004 0.300056 5.30028 -6.5244
285 1 Zr 0.200011 0.399992 0.200011 5.31151 -8.24879
286 1 Zr 0.300005 0.4 0.300005 5.31235 -8.24902
287 2 N 0.300005 0.399996 0.200008 5.3111 -6.52506
288 2 N 0.200008 0.399996 0.300005 5.3111 -6.52506
289 1 Zr 0.400002 0.400002 0.200008 10.6246 -8.24906
290 2 N 0.400002 0.400002 0.300005 10.6253 -6.52497
291 1 Zr 0.5 0.400003 0.300005 10.6251 -8.24905
292 1 Zr 0.599998 0.400002 0.200008 10.6246 -8.24906
293 2 N 0.5 0.400003 0.200008 10.6244 -6.52494
294 2 N 0.599998 0.400002 0.300005 10.6253 -6.52497
295 1 Zr 0.699995 0.4 0.300005 5.31235 -8.24902
296 1 Zr 0.799989 0.399992 0.200011 5.31151 -8.24879
297 2 N 0.699995 0.399996 0.200008 5.3111 -6.52506
298 2 N 0.799992 0.399996 0.300005 5.3111 -6.52506
299 1 Zr 0.899991 0.399995 0.300009 5.30251 -8.24859
300 2 N 0.89998 0.400001 0.200023 5.29562 -6.5232
301 1 Zr 0.100014 0.5 0.200023 10.609 -8.24886
302 1 Zr -1.40698e-17 0.5 0.300043 5.3045 -8.25055
303 1 Zr -1.91787e-17 0.59992 0.200073 10.5803 -8.25172
304 1 Zr 0.100009 0.600005 0.300009 5.30251 -8.24859
305 2 N -2.82534e-17 0.5 0.200063 5.29531 -6.52412
306 2 N 0.10002 0.599999 0.200023 5.29562 -6.5232
307 2 N 0.100013 0.5 0.300016 10.6175 -6.52431
308 2 N -3.8689e-17 0.59996 0.300056 5.30028 -6.5244
309 1 Zr 0.300008 0.5 0.200009 10.6238 -8.24895
310 1 Zr 0.200009 0.5 0.300008 10.6238 -8.24895
311 1 Zr 0.200011 0.600008 0.200011 5.31151 -8.24879
312 1 Zr 0.300005 0.6 0.300005 5.31235 -8.24902
313 2 N 0.200014 0.5 0.200014 10.6233 -6.52455
314 2 N 0.300005 0.600004 0.200008 5.3111 -6.52506
315 2 N 0.300005 0.5 0.300005 10.6243 -6.52501
316 2 N 0.200008 0.600004 0.300005 5.3111 -6.52506
317 1 Zr 0.400003 0.5 0.300005 10.6251 -8.24905
318 1 Zr 0.400002 0.599998 0.200008 10.6246 -8.24906
319 2 N 0.400003 0.5 0.200008 10.6244 -6.52494
320 2 N 0.400002 0.599998 0.300005 10.6253 -6.52497
321 1 Zr 0.5 0.5 0.200007 15.937 -8.24908
322 1 Zr 0.599997 0.5 0.300005 10.6251 -8.24905
323 1 Zr 0.5 0.599997 0.300005 10.6251 -8.24905
324 1 Zr 0.599998 0.599998 0.200008 10.6246 -8.24906
325 2 N 0.599997 0.5 0.200008 10.6244 -6.52494
326 2 N 0.5 0.599997 0.200008 10.6244 -6.52494
327 2 N 0.5 0.5 0.300005 5.31269 -6.52494
328 2 N 0.599998 0.599998 0.300005 10.6253 -6.52497
329 1 Zr 0.699992 0.5 0.200009 10.6238 -8.24895
330 1 Zr 0.799991 0.5 0.300008 10.6238 -8.24895
331 1 Zr 0.699995 0.6 0.300005 5.31235 -8.24902
332 1 Zr 0.799989 0.600008 0.200011 5.31151 -8.24879
333 2 N 0.799986 0.5 0.200014 10.6233 -6.52455
334 2 N 0.699995 0.600004 0.200008 5.3111 -6.52506
335 2 N 0.699995 0.5 0.300005 10.6243 -6.52501
336 2 N 0.799992 0.600004 0.300005 5.3111 -6.52506
337 1 Zr 0.899986 0.5 0.200023 10.609 -8.24886
338 1 Zr 0.899991 0.600005 0.300009 5.30251 -8.24859
339 2 N 0.89998 0.599999 0.200023 5.29562 -6.5232
340 2 N 0.899987 0.5 0.300016 10.6175 -6.52431
341 1 Zr 0.100011 0.700055 0.199983 10.5546 -8.24575
342 1 Zr -4.4316e-17 0.699907 0.300093 10.5809 -8.25272
343 1 Zr 9.56823e-18 0.799683 0.200317 15.6554 -8.26371
344 1 Zr 0.100011 0.800017 0.299945 10.5546 -8.24575
345 2 N -2.09118e-17 0.699826 0.200165 10.5262 -6.52237
346 2 N 0.100045 0.800213 0.199787 10.4072 -6.53504
347 2 N 0.100019 0.700022 0.299978 10.5822 -6.52593
348 2 N -3.63255e-17 0.799835 0.300174 10.5262 -6.52237
349 1 Zr 0.299998 0.700002 0.200006 1.08147e-06 -8.24913
350 1 Zr 0.200006 0.700002 0.299998 1.08147e-06 -8.24913
351 1 Zr 0.199993 0.800007 0.199993 0.000136556 -8.25293
352 1 Zr 0.299998 0.799994 0.299998 1.08147e-06 -8.24913
353 2 N 0.199997 0.700029 0.199997 5.30879 -6.5262
354 2 N 0.299971 0.800003 0.199997 5.30879 -6.5262
355 2 N 0.300001 0.699999 0.300001 8.49827e-08 -6.52508
356 2 N 0.199997 0.800003 0.299971 5.30879 -6.5262
357 1 Zr 0.4 0.699995 0.300005 5.31235 -8.24902
358 1 Zr 0.399992 0.799989 0.200011 5.31151 -8.24879
359 2 N 0.399996 0.699995 0.200008 5.3111 -6.52506
360 2 N 0.399996 0.799992 0.300005 5.3111 -6.52506
361 1 Zr 0.5 0.699992 0.200009 10.6238 -8.24895
362 1 Zr 0.6 0.699995 0.300005 5.31235 -8.24902
363 1 Zr 0.5 0.799991 0.300008 10.6238 -8.24895
364 1 Zr 0.600008 0.799989 0.200011 5.31151 -8.24879
365 2 N 0.600004 0.699995 0.200008 5.3111 -6.52506
366 2 N 0.5 0.799986 0.200014 10.6233 -6.52455
367 2 N 0.5 0.699995 0.300005 10.6243 -6.52501
368 2 N 0.600004 0.799992 0.300005 5.3111 -6.52506
369 1 Zr 0.700002 0.700002 0.200006 1.08147e-06 -8.24913
370 1 Zr 0.799994 0.700002 0.299998 1.08147e-06 -8.24913
371 1 Zr 0.700002 0.799994 0.299998 1.08147e-06 -8.24913
372 1 Zr 0.800007 0.800007 0.199993 0.000136556 -8.25293
373 2 N 0.800003 0.700029 0.199997 5.30879 -6.5262
374 2 N 0.700029 0.800003 0.199997 5.30879 -6.5262
375 2 N 0.699999 0.699999 0.300001 8.49827e-08 -6.52508
376 2 N 0.800003 0.800003 0.299971 5.30879 -6.5262
377 1 Zr 0.899989 0.700055 0.199983 10.5546 -8.24575
378 1 Zr 0.899989 0.800017 0.299945 10.5546 -8.24575
379 2 N 0.899955 0.800213 0.199787 10.4072 -6.53504
380 2 N 0.899981 0.700022 0.299978 10.5822 -6.52593
381 1 Zr 0.099892 0.900108 0.199605 10.3257 -8.22293
382 1 Zr -4.00341e-17 0.89987 0.300392 10.3486 -8.25624
383 2 N 2.31327e-17 0.899372 0.200799 9.70191 -6.47416
384 2 N 0.100028 0.899972 0.300048 5.2458 -6.51574
385 1 Zr 0.299945 0.899989 0.199983 10.5546 -8.24575
386 1 Zr 0.199983 0.899989 0.299945 10.5546 -8.24575
387 2 N 0.199787 0.899955 0.199787 10.4072 -6.53504
388 2 N 0.299978 0.899981 0.299978 10.5822 -6.52593
389 1 Zr 0.399995 0.899991 0.300009 5.30251 -8.24859
390 2 N 0.400001 0.89998 0.200023 5.29562 -6.5232
391 1 Zr 0.5 0.899986 0.200023 10.609 -8.24886
392 1 Zr 0.600005 0.899991 0.300009 5.30251 -8.24859
393 2 N 0.599999 0.89998 0.200023 5.29562 -6.5232
394 2 N 0.5 0.899987 0.300016 10.6175 -6.52431
395 1 Zr 0.700055 0.899989 0.199983 10.5546 -8.24575
396 1 Zr 0.800017 0.899989 0.299945 10.5546 -8.24575
397 2 N 0.800213 0.899955 0.199787 10.4072 -6.53504
398 2 N 0.700022 0.899981 0.299978 10.5822 -6.52593
399 1 Zr 0.900108 0.900108 0.199605 10.3257 -8.22293
400 2 N 0.899972 0.899972 0.300048 5.2458 -6.51574
401 1 Zr -1.86265e-17 -2.83086e-17 0.400374 15.7548 -8.25914
402 1 Zr 0.100022 0.100022 0.40003 5.27775 -8.24882
403 2 N 0.10008 -3.32935e-17 0.400167 10.5264 -6.52351
404 2 N -2.3319e-17 0.10008 0.400167 10.5264 -6.52351
405 1 Zr 0.200073 -3.45674e-17 0.40008 10.5803 -8.25172
406 1 Zr 0.300009 0.100009 0.399995 5.30251 -8.24859
407 2 N 0.300056 -3.8982e-17 0.40004 5.30028 -6.5244
408 2 N 0.200023 0.10002 0.400001 5.29562 -6.5232
409 1 Zr 0.400027 7.92994e-18 0.400027 5.3064 -8.25046
410 2 N 0.400003 0.100011 0.400003 5.33477e-06 -6.5248
411 1 Zr 0.5 0.100007 0.400007 10.6197 -8.24902
412 1 Zr 0.599973 2.53189e-18 0.400027 5.3064 -8.25046
413 2 N 0.5 -1.01731e-17 0.400023 5.30876 -6.5246
414 2 N 0.599997 0.100011 0.400003 5.33477e-06 -6.5248
415 1 Zr 0.699991 0.100009 0.399995 5.30251 -8.24859
416 1 Zr 0.799927 -3.74561e-17 0.40008 10.5803 -8.25172
417 2 N 0.699944 -5.19314e-17 0.40004 5.30028 -6.5244
418 2 N 0.799977 0.10002 0.400001 5.29562 -6.5232
419 1 Zr 0.899978 0.100022 0.40003 5.27775 -8.24882
420 2 N 0.89992 5.42207e-18 0.400167 10.5264 -6.52351
421 1 Zr -1.54436e-17 0.200073 0.40008 10.5803 -8.25172
422 1 Zr 0.100009 0.300009 0.399995 5.30251 -8.24859
423 2 N 0.10002 0.200023 0.400001 5.29562 -6.5232
424 2 N -2.49823e-17 0.300056 0.40004 5.30028 -6.5244
425 1 Zr 0.200011 0.200011 0.399992 5.31151 -8.24879
426 1 Zr 0.300005 0.300005 0.4 5.31235 -8.24902
427 2 N 0.300005 0.200008 0.399996 5.3111 -6.52506
428 2 N 0.200008 0.300005 0.399996 5.3111 -6.52506
429 1 Zr 0.400002 0.200008 0.400002 10.6246 -8.24906
430 2 N 0.400002 0.300005 0.400002 10.6253 -6.52497
431 1 Zr 0.5 0.300005 0.400003 10.6251 -8.24905
432 1 Zr 0.599998 0.200008 0.400002 10.6246 -8.24906
433 2 N 0.5 0.200008 0.400003 10.6244 -6.52494
434 2 N 0.599998 0.300005 0.400002 10.6253 -6.52497
435 1 Zr 0.699995 0.300005 0.4 5.31235 -8.24902
436 1 Zr 0.799989 0.200011 0.399992 5.31151 -8.24879
437 2 N 0.699995 0.200008 0.399996 5.3111 -6.52506
438 2 N 0.799992 0.300005 0.399996 5.3111 -6.52506
439 1 Zr 0.899991 0.300009 0.399995 5.30251 -8.24859
440 2 N 0.89998 0.200023 0.400001 5.29562 -6.5232
441 1 Zr 1.94793e-17 0.400027 0.400027 5.3064 -8.25046
442 2 N 0.100011 0.400003 0.400003 5.33477e-06 -6.5248
443 1 Zr 0.200008 0.400002 0.400002 10.6246 -8.24906
444 2 N 0.300005 0.400002 0.400002 10.6253 -6.52497
445 1 Zr 0.400002 0.400002 0.400002 8.41437e-10 -8.24906
446 1 Zr 0.599998 0.400002 0.400002 8.41437e-10 -8.24906
447 2 N 0.5 0.400003 0.400003 5.31272 -6.52495
448 1 Zr 0.799992 0.400002 0.400002 10.6246 -8.24906
449 2 N 0.699995 0.400002 0.400002 10.6253 -6.52497
450 2 N 0.899989 0.400003 0.400003 5.33477e-06 -6.5248
451 1 Zr 0.100007 0.5 0.400007 10.6197 -8.24902
452 1 Zr 1.10607e-17 0.599973 0.400027 5.3064 -8.25046
453 2 N 6.514e-18 0.5 0.400023 5.30876 -6.5246
454 2 N 0.100011 0.599997 0.400003 5.33477e-06 -6.5248
455 1 Zr 0.300005 0.5 0.400003 10.6251 -8.24905
456 1 Zr 0.200008 0.599998 0.400002 10.6246 -8.24906
457 2 N 0.200008 0.5 0.400003 10.6244 -6.52494
458 2 N 0.300005 0.599998 0.400002 10.6253 -6.52497
459 1 Zr 0.400002 0.599998 0.400002 8.41437e-10 -8.24906
460 2 N 0.400003 0.5 0.400003 5.31272 -6.52495
461 1 Zr 0.5 0.5 0.400003 5.31274 -8.24907
462 1 Zr 0.599998 0.599998 0.400002 8.41437e-10 -8.24906
463 2 N 0.599997 0.5 0.400003 10.6254 -6.52495
464 2 N 0.5 0.599997 0.400003 5.31272 -6.52495
465 1 Zr 0.699995 0.5 0.400003 10.6251 -8.24905
466 1 Zr 0.799992 0.599998 0.400002 10.6246 -8.24906
467 2 N 0.799992 0.5 0.400003 10.6244 -6.52494
468 2 N 0.699995 0.599998 0.400002 10.6253 -6.52497
469 1 Zr 0.899993 0.5 0.400007 10.6197 -8.24902
470 2 N 0.899989 0.599997 0.400003 5.33477e-06 -6.5248
471 1 Zr 0.100009 0.699991 0.399995 5.30251 -8.24859
472 1 Zr -4.23708e-17 0.799927 0.40008 10.5803 -8.25172
473 2 N -4.66705e-17 0.699944 0.40004 5.30028 -6.5244
474 2 N 0.10002 0.799977 0.400001 5.29562 -6.5232
475 1 Zr 0.300005 0.699995 0.4 5.31235 -8.24902
476 1 Zr 0.200011 0.799989 0.399992 5.31151 -8.24879
477 2 N 0.200008 0.699995 0.399996 5.3111 -6.52506
478 2 N 0.300005 0.799992 0.399996 5.3111 -6.52506
479 1 Zr 0.400002 0.799992 0.400002 10.6246 -8.24906
480 2 N 0.400002 0.699995 0.400002 10.6253 -6.52497
481 1 Zr 0.5 0.699995 0.400003 10.6251 -8.24905
482 1 Zr 0.599998 0.799992 0.400002 10.6246 -8.24906
483 2 N 0.599998 0.699995 0.400002 10.6253 -6.52497
484 2 N 0.5 0.799992 0.400003 10.6244 -6.52494
485 1 Zr 0.699995 0.699995 0.4 5.31235 -8.24902
486 1 Zr 0.799989 0.799989 0.399992 5.31151 -8.24879
487 2 N 0.799992 0.699995 0.399996 5.3111 -6.52506
488 2 N 0.699995 0.799992 0.399996 5.3111 -6.52506
489 1 Zr 0.899991 0.699991 0.399995 5.30251 -8.24859
490 2 N 0.89998 0.799977 0.400001 5.29562 -6.5232
491 1 Zr 0.100022 0.899978 0.40003 5.27775 -8.24882
492 2 N -9.68856e-18 0.89992 0.400167 10.5264 -6.52351
493 1 Zr 0.300009 0.899991 0.399995 5.30251 -8.24859
494 2 N 0.200023 0.89998 0.400001 5.29562 -6.5232
495 2 N 0.400003 0.899989 0.400003 5.33477e-06 -6.5248
496 1 Zr 0.5 0.899993 0.400007 10.6197 -8.24902
497 2 N 0.599997 0.899989 0.400003 5.33477e-06 -6.5248
498 1 Zr 0.699991 0.899991 0.399995 5.30251 -8.24859
499 2 N 0.799977 0.89998 0.400001 5.29562 -6.5232
500 1 Zr 0.899978 0.899978 0.40003 5.27775 -8.24882
501 1 Zr 0.100049 -2.03885e-17 0.5 5.27349 -8.2526
502 1 Zr -3.47029e-17 0.100049 0.5 5.27349 -8.2526
503 1 Zr -2.68342e-17 -2.02829e-17 0.599626 15.7548 -8.25914
504 1 Zr 0.100022 0.100022 0.59997 5.27775 -8.24882
505 2 N -4.05852e-17 -3.22686e-17 0.5 5.29529 -6.52658
506 2 N 0.100032 0.100032 0.5 10.5906 -6.52246
507 2 N 0.10008 -1.08885e-17 0.599833 10.5264 -6.52351
508 2 N -5.49222e-18 0.10008 0.599833 10.5264 -6.52351
509 1 Zr 0.300043 -2.52457e-17 0.5 5.3045 -8.25055
510 1 Zr 0.200023 0.100014 0.5 10.609 -8.24886
511 1 Zr 0.200073 -1.72396e-17 0.59992 10.5803 -8.25172
512 1 Zr 0.300009 0.100009 0.600005 5.30251 -8.24859
513 2 N 0.200063 -4.75447e-17 0.5 5.29531 -6.52412
514 2 N 0.300016 0.100013 0.5 10.6175 -6.52431
515 2 N 0.300056 -2.59227e-17 0.59996 5.30028 -6.5244
516 2 N 0.200023 0.10002 0.599999 5.29562 -6.5232
517 1 Zr 0.400007 0.100007 0.5 10.6197 -8.24902
518 1 Zr 0.400027 2.28635e-17 0.599973 5.3064 -8.25046
519 2 N 0.400023 -8.81095e-18 0.5 5.30876 -6.5246
520 2 N 0.400003 0.100011 0.599997 5.33477e-06 -6.5248
521 1 Zr 0.5 1.35334e-17 0.5 5.3102 -8.25011
522 1 Zr 0.599993 0.100007 0.5 10.6197 -8.24902
523 1 Zr 0.5 0.100007 0.599993 10.6197 -8.24902
524 1 Zr 0.599973 1.26949e-18 0.599973 5.3064 -8.25046
525 2 N 0.5 0.100009 0.5 15.9319 -6.52476
526 2 N 0.5 4.18125e-18 0.599977 5.30876 -6.5246
527 2 N 0.599977 2.84388e-19 0.5 5.30876 -6.5246
528 2 N 0.599997 0.100011 0.599997 5.33477e-06 -6.5248
529 1 Zr 0.699957 -3.37651e-17 0.5 5.3045 -8.25055
530 1 Zr 0.799977 0.100014 0.5 10.609 -8.24886
531 1 Zr 0.699991 0.100009 0.600005 5.30251 -8.24859
532 1 Zr 0.799927 -1.65021e-17 0.59992 10.5803 -8.25172
533 2 N 0.699984 0.100013 0.5 10.6175 -6.52431
534 2 N 0.699944 -2.39376e-17 0.59996 5.30028 -6.5244
535 2 N 0.799937 -5.23612e-17 0.5 5.29531 -6.52412
536 2 N 0.799977 0.10002 0.599999 5.29562 -6.5232
537 1 Zr 0.899951 8.37481e-18 0.5 5.27349 -8.2526
538 1 Zr 0.899978 0.100022 0.59997 5.27775 -8.24882
539 2 N 0.899968 0.100032 0.5 10.5906 -6.52246
540 2 N 0.89992 2.11718e-17 0.599833 10.5264 -6.52351
541 1 Zr 0.100014 0.200023 0.5 10.609 -8.24886
542 1 Zr -2.25519e-17 0.300043 0.5 5.3045 -8.25055
543 1 Zr -2.02612e-17 0.200073 0.59992 10.5803 -8.25172
544 1 Zr 0.100009 0.300009 0.600005 5.30251 -8.24859
545 2 N -4.46013e-17 0.200063 0.5 5.29531 -6.52412
546 2 N 0.100013 0.300016 0.5 10.6175 -6.52431
547 2 N 0.10002 0.200023 0.599999 5.29562 -6.5232
548 2 N -3.0058e-17 0.300056 0.59996 5.30028 -6.5244
549 1 Zr 0.300008 0.200009 0.5 10.6238 -8.24895
550 1 Zr 0.200009 0.300008 0.5 10.6238 -8.24895
551 1 Zr 0.200011 0.200011 0.600008 5.31151 -8.24879
552 1 Zr 0.300005 0.300005 0.6 5.31235 -8.24902
553 2 N 0.200014 0.200014 0.5 10.6233 -6.52455
554 2 N 0.300005 0.300005 0.5 10.6243 -6.52501
555 2 N 0.300005 0.200008 0.600004 5.3111 -6.52506
556 2 N 0.200008 0.300005 0.600004 5.3111 -6.52506
557 1 Zr 0.400003 0.300005 0.5 10.6251 -8.24905
558 1 Zr 0.400002 0.200008 0.599998 10.6246 -8.24906
559 2 N 0.400003 0.200008 0.5 10.6244 -6.52494
560 2 N 0.400002 0.300005 0.599998 10.6253 -6.52497
561 1 Zr 0.5 0.200007 0.5 15.937 -8.24908
562 1 Zr 0.599997 0.300005 0.5 10.6251 -8.24905
563 1 Zr 0.5 0.300005 0.599997 10.6251 -8.24905
564 1 Zr 0.599998 0.200008 0.599998 10.6246 -8.24906
565 2 N 0.5 0.300005 0.5 5.31269 -6.52494
566 2 N 0.5 0.200008 0.599997 10.6244 -6.52494
567 2 N 0.599997 0.200008 0.5 10.6244 -6.52494
568 2 N 0.599998 0.300005 0.599998 10.6253 -6.52497
569 1 Zr 0.699992 0.200009 0.5 10.6238 -8.24895
570 1 Zr 0.799991 0.300008 0.5 10.6238 -8.24895
571 1 Zr 0.699995 0.300005 0.6 5.31235 -8.24902