ITEM: TIMESTEP
11
ITEM: NUMBER OF ATOMS
56
ITEM: BOX BOUNDS pp pp pp
-4.6100000000000003e+00 4.6100000000000003e+00
-4.6100000000000003e+00 4.6100000000000003e+00
-4.6100000000000003e+00 4.6100000000000003e+00
ITEM: ATOMS id element type xs ys zs c_csym c_eng
1 Zr 1 0 0 9.63317e-17 5.38681 -5.98049
2 Zr 1 0.25 0.25 0 5.38681 -5.98049
3 Zr 1 0.25 0 0.267339 11.1203 -7.11089
4 Zr 1 0 0.25 0.267339 11.1203 -7.11089
33 N 2 0 0 0.237877 6.00325 -7.18748
34 N 2 0.25 0.25 0.237877 6.00325 -7.18748
5 Zr 1 0.5 0 0 5.38681 -5.98049
6 Zr 1 0.75 0.25 0 5.38681 -5.98049
7 Zr 1 0.75 0 0.267339 11.1203 -7.11089
8 Zr 1 0.5 0.25 0.267339 11.1203 -7.11089
37 N 2 0.5 0 0.237877 6.00325 -7.18748
38 N 2 0.75 0.25 0.237877 6.00325 -7.18748
9 Zr 1 0 0.5 0 5.38681 -5.98049
10 Zr 1 0.25 0.75 0 3.15544e-30 -5.98049
11 Zr 1 0.25 0.5 0.267339 11.1203 -7.11089
12 Zr 1 0 0.75 0.267339 11.1203 -7.11089
41 N 2 0 0.5 0.237877 6.00325 -7.18748
42 N 2 0.25 0.75 0.237877 6.00325 -7.18748
13 Zr 1 0.5 0.5 0 1.82528e-31 -5.98049
14 Zr 1 0.75 0.75 0 5.38681 -5.98049
15 Zr 1 0.75 0.5 0.267339 11.1203 -7.11089
16 Zr 1 0.5 0.75 0.267339 11.1203 -7.11089
45 N 2 0.5 0.5 0.237877 6.00325 -7.18748
46 N 2 0.75 0.75 0.237877 6.00325 -7.18748
17 Zr 1 0 0 0.5 4.6016 -8.04213
18 Zr 1 0.25 0.25 0.5 4.6016 -8.04213
19 Zr 1 0.25 0 0.732661 11.1203 -7.11089
20 Zr 1 0 0.25 0.732661 11.1203 -7.11089
35 N 2 0.25 0 0.5 5.31302 -6.77582
36 N 2 0 0.25 0.5 5.31302 -6.77582
49 N 2 0 0 0.762123 6.00325 -7.18748
50 N 2 0.25 0.25 0.762123 6.00325 -7.18748
21 Zr 1 0.5 0 0.5 4.6016 -8.04213
22 Zr 1 0.75 0.25 0.5 4.6016 -8.04213
23 Zr 1 0.75 0 0.732661 11.1203 -7.11089
24 Zr 1 0.5 0.25 0.732661 11.1203 -7.11089
39 N 2 0.75 0 0.5 5.31302 -6.77582
40 N 2 0.5 0.25 0.5 5.31303 -6.77582
51 N 2 0.5 0 0.762123 6.00325 -7.18748
52 N 2 0.75 0.25 0.762123 6.00325 -7.18748
25 Zr 1 0 0.5 0.5 4.6016 -8.04213
26 Zr 1 0.25 0.75 0.5 4.6016 -8.04213
27 Zr 1 0.25 0.5 0.732661 11.1203 -7.11089
28 Zr 1 0 0.75 0.732661 11.1203 -7.11089
43 N 2 0.25 0.5 0.5 5.31302 -6.77582
44 N 2 0 0.75 0.5 5.31302 -6.77582
53 N 2 0 0.5 0.762123 6.00325 -7.18748
54 N 2 0.25 0.75 0.762123 6.00325 -7.18748
29 Zr 1 0.5 0.5 0.5 4.6016 -8.04213
30 Zr 1 0.75 0.75 0.5 4.6016 -8.04213
31 Zr 1 0.75 0.5 0.732661 11.1203 -7.11089
32 Zr 1 0.5 0.75 0.732661 11.1203 -7.11089
47 N 2 0.75 0.5 0.5 5.31303 -6.77582
48 N 2 0.5 0.75 0.5 5.31303 -6.77582
55 N 2 0.5 0.5 0.762123 6.00325 -7.18748
56 N 2 0.75 0.75 0.762123 6.00325 -7.18748
