ITEM: TIMESTEP
24
ITEM: NUMBER OF ATOMS
215
ITEM: BOX BOUNDS pp pp pp
0.0000000000000000e+00 1.3830000000000002e+01
0.0000000000000000e+00 1.3830000000000002e+01
0.0000000000000000e+00 1.3830000000000002e+01
ITEM: ATOMS id type element xs ys zs c_csym c_eng
2 1 Zr 0.166754 0.166754 -3.23291e-17 5.18579 -8.26954
3 1 Zr 0.166754 -6.16121e-17 0.166754 5.18579 -8.26954
4 1 Zr -4.25918e-17 0.166754 0.166754 5.18579 -8.26954
5 2 N 0.180889 -1.66845e-17 -2.95908e-17 11.6677 -6.36401
6 2 N -2.04491e-17 0.180889 -3.8418e-17 11.6677 -6.36401
7 2 N -5.26705e-17 -4.55566e-17 0.180889 11.6677 -6.36401
8 2 N 0.163885 0.163885 0.163885 14.9759 -6.54919
9 1 Zr 0.336943 -4.15488e-17 -3.99417e-17 9.88513 -8.32387
10 1 Zr 0.5 0.16702 -4.80531e-17 5.08978 -8.26496
11 1 Zr 0.5 -2.64427e-17 0.16702 5.08978 -8.26496
12 1 Zr 0.332621 0.16651 0.16651 10.3462 -8.22332
13 2 N 0.5 -1.55455e-17 -2.00973e-17 5.24786 -6.54993
14 2 N 0.33436 0.167754 -1.01786e-17 9.71526 -6.47089
15 2 N 0.33436 -2.0748e-17 0.167754 9.71526 -6.47089
16 2 N 0.5 0.166757 0.166757 10.4966 -6.50483
17 1 Zr 0.663057 -4.2807e-17 -3.02687e-17 9.88513 -8.32387
18 1 Zr 0.833246 0.166754 -1.94804e-17 5.18579 -8.26954
19 1 Zr 0.833246 -3.58795e-17 0.166754 5.18579 -8.26954
20 1 Zr 0.667379 0.16651 0.16651 10.3462 -8.22332
21 2 N 0.819111 -8.49865e-17 -2.29165e-17 11.6677 -6.36401
22 2 N 0.66564 0.167754 -4.21142e-17 9.71526 -6.47089
23 2 N 0.66564 -4.24018e-17 0.167754 9.71526 -6.47089
24 2 N 0.836115 0.163885 0.163885 14.9759 -6.54919
25 1 Zr -4.32832e-17 0.336943 -4.79383e-17 14.7965 -8.32387
26 1 Zr 0.16702 0.5 -3.11062e-17 5.08978 -8.26496
27 1 Zr 0.16651 0.332621 0.16651 10.3462 -8.22332
28 1 Zr -2.25361e-17 0.5 0.16702 5.08978 -8.26496
29 2 N 0.167754 0.33436 -3.62455e-17 9.71526 -6.47089
30 2 N -2.77239e-17 0.5 -1.41094e-17 5.24786 -6.54993
31 2 N -1.25159e-17 0.33436 0.167754 9.71526 -6.47089
32 2 N 0.166757 0.5 0.166757 10.4966 -6.50483
33 1 Zr 0.333758 0.333758 -3.49797e-17 15.7152 -8.26974
34 1 Zr 0.5 0.5 -3.45198e-17 5.286 -8.26318
35 1 Zr 0.5 0.333289 0.166718 5.28034 -8.24213
36 1 Zr 0.333289 0.5 0.166718 5.28034 -8.24213
37 2 N 0.5 0.333712 -2.982e-17 5.24815 -6.51842
38 2 N 0.333712 0.5 -3.52001e-19 5.24815 -6.51842
39 2 N 0.332998 0.332998 0.1668 10.4024 -6.53109
40 2 N 0.5 0.5 0.166774 5.28899 -6.52884
41 1 Zr 0.666242 0.333758 -3.7553e-17 15.7152 -8.26974
42 1 Zr 0.83298 0.5 -2.04146e-17 5.08978 -8.26496
43 1 Zr 0.83349 0.332621 0.16651 10.3462 -8.22332
44 1 Zr 0.666711 0.5 0.166718 5.28034 -8.24213
45 2 N 0.832246 0.33436 -1.6691e-17 9.71526 -6.47089
46 2 N 0.666288 0.5 -9.43663e-18 5.24815 -6.51842
47 2 N 0.667002 0.332998 0.1668 10.4024 -6.53109
48 2 N 0.833243 0.5 0.166757 10.4966 -6.50483
49 1 Zr -1.83577e-17 0.663057 -3.68624e-17 14.7965 -8.32387
50 1 Zr 0.166754 0.833246 -3.25635e-17 5.18579 -8.26954
51 1 Zr 0.16651 0.667379 0.16651 10.3462 -8.22332
52 1 Zr -3.32379e-17 0.833246 0.166754 5.18579 -8.26954
53 2 N 0.167754 0.66564 -3.43279e-18 9.71526 -6.47089
54 2 N -3.78271e-17 0.819111 -1.66675e-17 11.6677 -6.36401
55 2 N -6.21362e-18 0.66564 0.167754 9.71526 -6.47089
56 2 N 0.163885 0.836115 0.163885 14.9759 -6.54919
57 1 Zr 0.333758 0.666242 -1.63729e-17 15.7152 -8.26974
58 1 Zr 0.5 0.83298 -3.15433e-17 5.08978 -8.26496
59 1 Zr 0.5 0.666711 0.166718 5.28034 -8.24213
60 1 Zr 0.332621 0.83349 0.16651 10.3462 -8.22332
61 2 N 0.5 0.666288 -2.23255e-17 5.24815 -6.51842
62 2 N 0.33436 0.832246 -2.3729e-17 9.71526 -6.47089
63 2 N 0.332998 0.667002 0.1668 10.4024 -6.53109
64 2 N 0.5 0.833243 0.166757 10.4966 -6.50483
65 1 Zr 0.666242 0.666242 -1.97088e-17 15.7152 -8.26974
66 1 Zr 0.833246 0.833246 -1.49481e-17 5.18579 -8.26954
67 1 Zr 0.83349 0.667379 0.16651 10.3462 -8.22332
68 1 Zr 0.667379 0.83349 0.16651 10.3462 -8.22332
69 2 N 0.832246 0.66564 -1.52668e-18 9.71526 -6.47089
70 2 N 0.66564 0.832246 1.82965e-17 9.71526 -6.47089
71 2 N 0.667002 0.667002 0.1668 10.4024 -6.53109
72 2 N 0.836115 0.836115 0.163885 10.028 -6.54919
73 1 Zr -4.71822e-17 -2.47033e-17 0.336943 9.88513 -8.32387
74 1 Zr 0.16651 0.16651 0.332621 10.3462 -8.22332
75 1 Zr 0.16702 -5.2361e-17 0.5 5.08978 -8.26496
76 1 Zr -4.34942e-17 0.16702 0.5 5.08978 -8.26496
77 2 N 0.167754 -3.01064e-17 0.33436 9.71526 -6.47089
78 2 N -3.57318e-17 0.167754 0.33436 9.71526 -6.47089
79 2 N -9.97253e-18 -3.72023e-17 0.5 5.24786 -6.54993
80 2 N 0.166757 0.166757 0.5 10.4966 -6.50483
81 1 Zr 0.333758 -1.56921e-17 0.333758 15.7152 -8.26974
82 1 Zr 0.5 0.166718 0.333289 5.28034 -8.24213
83 1 Zr 0.5 -4.36414e-17 0.5 5.286 -8.26318
84 1 Zr 0.333289 0.166718 0.5 5.28034 -8.24213
85 2 N 0.5 -2.1367e-17 0.333712 5.24815 -6.51842
86 2 N 0.332998 0.1668 0.332998 10.4024 -6.53109
87 2 N 0.333712 -1.02984e-17 0.5 5.24815 -6.51842
88 2 N 0.5 0.166774 0.5 5.28899 -6.52884
89 1 Zr 0.666242 -2.93416e-17 0.333758 15.7152 -8.26974
90 1 Zr 0.83349 0.16651 0.332621 10.3462 -8.22332
91 1 Zr 0.83298 -4.09156e-17 0.5 5.08978 -8.26496
92 1 Zr 0.666711 0.166718 0.5 5.28034 -8.24213
93 2 N 0.832246 -3.95388e-17 0.33436 9.71526 -6.47089
94 2 N 0.667002 0.1668 0.332998 10.4024 -6.53109
95 2 N 0.666288 -1.53943e-17 0.5 5.24815 -6.51842
96 2 N 0.833243 0.166757 0.5 10.4966 -6.50483
97 1 Zr -1.09009e-17 0.333758 0.333758 15.7152 -8.26974
98 1 Zr 0.166718 0.5 0.333289 5.28034 -8.24213
99 1 Zr 0.166718 0.333289 0.5 5.28034 -8.24213
100 1 Zr -4.17184e-17 0.5 0.5 5.286 -8.26318
101 2 N 0.1668 0.332998 0.332998 10.4024 -6.53109
102 2 N -5.84137e-18 0.5 0.333712 5.24815 -6.51842
103 2 N -1.62794e-17 0.333712 0.5 5.24815 -6.51842
104 2 N 0.166774 0.5 0.5 5.28899 -6.52884
105 1 Zr 0.333354 0.333354 0.333354 0.000171803 -8.2532
106 1 Zr 0.5 0.5 0.333357 10.6208 -8.25028
107 1 Zr 0.5 0.333357 0.5 10.6208 -8.25028
108 1 Zr 0.333357 0.5 0.5 10.6208 -8.25028
109 2 N 0.5 0.33334 0.33334 10.6131 -6.52749
110 2 N 0.33334 0.5 0.33334 10.6131 -6.52749
111 2 N 0.33334 0.33334 0.5 10.6131 -6.52749
112 2 N 0.5 0.5 0.5 15.9378 -6.52528
113 1 Zr 0.666646 0.333354 0.333354 0.000171803 -8.2532
114 1 Zr 0.833282 0.5 0.333289 5.28034 -8.24213
115 1 Zr 0.833282 0.333289 0.5 5.28034 -8.24213
116 1 Zr 0.666643 0.5 0.5 15.9312 -8.25028
117 2 N 0.8332 0.332998 0.332998 10.4024 -6.53109
118 2 N 0.66666 0.5 0.33334 5.30658 -6.52749
119 2 N 0.66666 0.33334 0.5 5.30658 -6.52749
120 2 N 0.833226 0.5 0.5 5.28899 -6.52884
121 1 Zr -9.00523e-18 0.666242 0.333758 15.7152 -8.26974
122 1 Zr 0.16651 0.83349 0.332621 10.3462 -8.22332
123 1 Zr 0.166718 0.666711 0.5 5.28034 -8.24213
124 1 Zr -1.78068e-17 0.83298 0.5 5.08978 -8.26496
125 2 N 0.1668 0.667002 0.332998 10.4024 -6.53109
126 2 N -1.31015e-17 0.832246 0.33436 9.71526 -6.47089
127 2 N -1.5785e-17 0.666288 0.5 5.24815 -6.51842
128 2 N 0.166757 0.833243 0.5 10.4966 -6.50483
129 1 Zr 0.333354 0.666646 0.333354 0.000171803 -8.2532
130 1 Zr 0.5 0.833282 0.333289 5.28034 -8.24213
131 1 Zr 0.5 0.666643 0.5 15.9312 -8.25028
132 1 Zr 0.333289 0.833282 0.5 5.28034 -8.24213
133 2 N 0.5 0.66666 0.33334 5.30658 -6.52749
134 2 N 0.332998 0.8332 0.332998 10.4024 -6.53109
135 2 N 0.33334 0.66666 0.5 10.6131 -6.52749
136 2 N 0.5 0.833226 0.5 5.28899 -6.52884
137 1 Zr 0.666646 0.666646 0.333354 0.000171803 -8.2532
138 1 Zr 0.83349 0.83349 0.332621 10.3462 -8.22332
139 1 Zr 0.833282 0.666711 0.5 5.28034 -8.24213
140 1 Zr 0.666711 0.833282 0.5 5.28034 -8.24213
141 2 N 0.8332 0.667002 0.332998 10.4024 -6.53109
142 2 N 0.667002 0.8332 0.332998 10.4024 -6.53109
143 2 N 0.66666 0.66666 0.5 5.30658 -6.52749
144 2 N 0.833243 0.833243 0.5 10.4966 -6.50483
145 1 Zr -3.40188e-17 -4.1522e-17 0.663057 14.7965 -8.32387
146 1 Zr 0.16651 0.16651 0.667379 10.3462 -8.22332
147 1 Zr 0.166754 -5.69048e-17 0.833246 5.18579 -8.26954
148 1 Zr -3.98625e-17 0.166754 0.833246 5.18579 -8.26954
149 2 N 0.167754 -4.48193e-17 0.66564 9.71526 -6.47089
150 2 N -1.50354e-17 0.167754 0.66564 9.71526 -6.47089
151 2 N -3.13377e-17 -1.62836e-17 0.819111 11.6677 -6.36401
152 2 N 0.163885 0.163885 0.836115 10.028 -6.54919
153 1 Zr 0.333758 -2.99894e-17 0.666242 15.7152 -8.26974
154 1 Zr 0.5 0.166718 0.666711 5.28034 -8.24213
155 1 Zr 0.5 -4.11042e-17 0.83298 5.08978 -8.26496
156 1 Zr 0.332621 0.16651 0.83349 10.3462 -8.22332
157 2 N 0.5 -2.42598e-17 0.666288 5.24815 -6.51842
158 2 N 0.332998 0.1668 0.667002 10.4024 -6.53109
159 2 N 0.33436 -3.47339e-17 0.832246 9.71526 -6.47089
160 2 N 0.5 0.166757 0.833243 10.4966 -6.50483
161 1 Zr 0.666242 -1.48821e-17 0.666242 15.7152 -8.26974
162 1 Zr 0.83349 0.16651 0.667379 10.3462 -8.22332
163 1 Zr 0.833246 -3.87312e-17 0.833246 5.18579 -8.26954
164 1 Zr 0.667379 0.16651 0.83349 10.3462 -8.22332
165 2 N 0.832246 -2.89252e-18 0.66564 9.71526 -6.47089
166 2 N 0.667002 0.1668 0.667002 10.4024 -6.53109
167 2 N 0.66564 -4.77038e-19 0.832246 9.71526 -6.47089
168 2 N 0.836115 0.163885 0.836115 10.028 -6.54919
169 1 Zr -1.89116e-17 0.333758 0.666242 15.7152 -8.26974
170 1 Zr 0.166718 0.5 0.666711 5.28034 -8.24213
171 1 Zr 0.16651 0.332621 0.83349 10.3462 -8.22332
172 1 Zr -3.35009e-17 0.5 0.83298 5.08978 -8.26496
173 2 N 0.1668 0.332998 0.667002 10.4024 -6.53109
174 2 N -3.10455e-17 0.5 0.666288 5.24815 -6.51842
175 2 N -2.15996e-17 0.33436 0.832246 9.71526 -6.47089
176 2 N 0.166757 0.5 0.833243 10.4966 -6.50483
177 1 Zr 0.333354 0.333354 0.666646 0.000171803 -8.2532
178 1 Zr 0.5 0.5 0.666643 10.6208 -8.25028
179 1 Zr 0.5 0.333289 0.833282 5.28034 -8.24213
180 1 Zr 0.333289 0.5 0.833282 5.28034 -8.24213
181 2 N 0.5 0.33334 0.66666 10.6131 -6.52749
182 2 N 0.33334 0.5 0.66666 10.6131 -6.52749
183 2 N 0.332998 0.332998 0.8332 10.4024 -6.53109
184 2 N 0.5 0.5 0.833226 5.28899 -6.52884
185 1 Zr 0.666646 0.333354 0.666646 0.000171803 -8.2532
186 1 Zr 0.833282 0.5 0.666711 5.28034 -8.24213
187 1 Zr 0.83349 0.332621 0.83349 10.3462 -8.22332
188 1 Zr 0.666711 0.5 0.833282 5.28034 -8.24213
189 2 N 0.8332 0.332998 0.667002 10.4024 -6.53109
190 2 N 0.66666 0.5 0.66666 5.30658 -6.52749
191 2 N 0.667002 0.332998 0.8332 10.4024 -6.53109
192 2 N 0.833243 0.5 0.833243 10.4966 -6.50483
193 1 Zr -1.5573e-18 0.666242 0.666242 15.7152 -8.26974
194 1 Zr 0.16651 0.83349 0.667379 10.3462 -8.22332
195 1 Zr 0.16651 0.667379 0.83349 10.3462 -8.22332
196 1 Zr -4.76908e-18 0.833246 0.833246 5.18579 -8.26954
197 2 N 0.1668 0.667002 0.667002 10.4024 -6.53109
198 2 N 9.48616e-18 0.832246 0.66564 9.71526 -6.47089
199 2 N 7.9802e-18 0.66564 0.832246 9.71526 -6.47089
200 2 N 0.163885 0.836115 0.836115 14.9759 -6.54919
201 1 Zr 0.333354 0.666646 0.666646 0.000171803 -8.2532
202 1 Zr 0.5 0.833282 0.666711 5.28034 -8.24213
203 1 Zr 0.5 0.666711 0.833282 5.28034 -8.24213
204 1 Zr 0.332621 0.83349 0.83349 10.3462 -8.22332
205 2 N 0.5 0.66666 0.66666 5.30658 -6.52749
206 2 N 0.332998 0.8332 0.667002 10.4024 -6.53109
207 2 N 0.332998 0.667002 0.8332 10.4024 -6.53109
208 2 N 0.5 0.833243 0.833243 10.4966 -6.50483
1 2 N 0.836115 0.836115 0.836115 10.028 -6.54919
209 1 Zr 0.666646 0.666646 0.666646 0.000171803 -8.2532
210 1 Zr 0.83349 0.83349 0.667379 10.3462 -8.22332
211 1 Zr 0.83349 0.667379 0.83349 10.3462 -8.22332
212 1 Zr 0.667379 0.83349 0.83349 10.3462 -8.22332
213 2 N 0.8332 0.667002 0.667002 10.4024 -6.53109
214 2 N 0.667002 0.8332 0.667002 10.4024 -6.53109
215 2 N 0.667002 0.667002 0.8332 10.4024 -6.53109
