ITEM: TIMESTEP
17
ITEM: NUMBER OF ATOMS
55
ITEM: BOX BOUNDS pp pp pp
-4.6100000000000003e+00 4.6100000000000003e+00
-4.6100000000000003e+00 4.6100000000000003e+00
-4.6100000000000003e+00 4.6100000000000003e+00
ITEM: ATOMS id type element xs ys zs c_csym c_eng
1 1 Zr 0 0 -3.13078e-14 5.39993 -5.99364
2 1 Zr 0.249262 0.249262 -3.82437e-14 5.27082 -5.9754
3 1 Zr 0.250252 0 0.267284 11.0915 -7.08821
4 1 Zr -9.63317e-17 0.250252 0.267284 11.0915 -7.08821
5 2 N -3.85327e-16 1.92663e-16 0.237346 5.96007 -7.20042
6 2 N 0.251335 0.251335 0.238894 5.86344 -7.18183
7 1 Zr 0.5 0 -5.02852e-14 5.38467 -5.98686
8 1 Zr 0.750738 0.249262 -3.99777e-14 5.27082 -5.9754
9 1 Zr 0.749748 9.63317e-17 0.267284 11.0915 -7.08821
10 1 Zr 0.5 0.252536 0.268154 7.29364 -7.11256
11 2 N 0.5 2.88995e-16 0.23616 5.53838 -7.1187
12 2 N 0.748665 0.251335 0.238894 5.86344 -7.18183
13 1 Zr 0 0.5 -3.31381e-14 5.38467 -5.98686
14 1 Zr 0.249262 0.750738 -3.51611e-14 5.27082 -5.9754
15 1 Zr 0.252536 0.5 0.268154 7.29364 -7.11256
16 1 Zr 0 0.749748 0.267284 11.0915 -7.08821
17 2 N 0 0.5 0.23616 5.53838 -7.1187
18 2 N 0.251335 0.748665 0.238894 5.86344 -7.18183
19 1 Zr 0.5 0.5 -8.74499e-13 5.36553 -5.94421
20 1 Zr 0.750738 0.750738 -3.70877e-14 5.27082 -5.9754
21 1 Zr 0.747464 0.5 0.268154 7.29364 -7.11256
22 1 Zr 0.5 0.747464 0.268154 7.29364 -7.11256
23 2 N 0.5 0.5 0.224801 12.4874 -7.14886
24 2 N 0.748665 0.748665 0.238894 5.86344 -7.18183
25 2 N 0.5 0.764225 0.5 12.6715 -6.58482
26 1 Zr 0 0 0.5 4.6041 -8.08498
27 1 Zr 0.25133 0.25133 0.5 4.63174 -8.05255
28 1 Zr 0.250252 0 0.732716 11.0915 -7.08821
29 1 Zr 0 0.250252 0.732716 11.0915 -7.08821
30 2 N 0.248276 0 0.5 4.7607 -6.68692
31 2 N 0 0.248276 0.5 4.7607 -6.68692
32 2 N 3.85327e-16 -1.92663e-16 0.762654 5.96007 -7.20042
33 2 N 0.251335 0.251335 0.761106 5.86344 -7.18183
34 1 Zr 0.5 0 0.5 4.59331 -8.15656
35 1 Zr 0.74867 0.25133 0.5 4.63174 -8.05255
36 1 Zr 0.749748 0 0.732716 11.0915 -7.08821
37 1 Zr 0.5 0.252536 0.731846 7.29364 -7.11256
38 2 N 0.751724 0 0.5 4.7607 -6.68692
39 2 N 0.5 0.235775 0.5 12.6715 -6.58482
40 2 N 0.5 -1.92663e-16 0.76384 5.53838 -7.1187
41 2 N 0.748665 0.251335 0.761106 5.86344 -7.18183
42 1 Zr -9.63317e-17 0.5 0.5 4.59331 -8.15656
43 1 Zr 0.25133 0.74867 0.5 4.63174 -8.05255
44 1 Zr 0.252536 0.5 0.731846 7.29364 -7.11256
45 1 Zr 0 0.749748 0.732716 11.0915 -7.08821
46 2 N 0.235775 0.5 0.5 12.6715 -6.58482
47 2 N 0 0.751724 0.5 4.7607 -6.68692
48 2 N -9.63317e-17 0.5 0.76384 5.53838 -7.1187
49 2 N 0.251335 0.748665 0.761106 5.86344 -7.18183
50 2 N 0.748665 0.748665 0.761106 5.86344 -7.18183
51 1 Zr 0.74867 0.74867 0.5 4.63174 -8.05255
52 1 Zr 0.747464 0.5 0.731846 7.29364 -7.11256
53 1 Zr 0.5 0.747464 0.731846 7.29364 -7.11256
54 2 N 0.764225 0.5 0.5 12.6715 -6.58482
55 2 N 0.5 0.5 0.775199 12.4874 -7.14886
