ITEM: TIMESTEP
1
ITEM: NUMBER OF ATOMS
7
ITEM: BOX BOUNDS pp pp pp
0.0000000000000000e+00 4.6100000000000003e+00
0.0000000000000000e+00 4.6100000000000003e+00
0.0000000000000000e+00 4.6100000000000003e+00
ITEM: ATOMS id type element xs ys zs c_csym c_eng
1 2 N 0.5 0.5 0.5 10.6261 -6.52523
2 1 Zr 0.5 0.5 0 0 -8.24877
3 1 Zr 0.5 0 0.5 0 -8.24877
4 1 Zr 0 0.5 0.5 5.31303 -8.24877
5 2 N 0.5 0 0 10.6261 -5.25504
6 2 N 0 0.5 0 5.31303 -5.25504
7 2 N 0 0 0.5 10.6261 -5.25504
