LAMMPS (23 Jun 2022)
Lattice spacing in x,y,z = 4.61 4.61 4.61
Created orthogonal box = (0 0 0) to (18.44 18.44 18.44)
  1 by 1 by 1 MPI processor grid
Lattice spacing in x,y,z = 4.61 4.61 4.61
Created 256 atoms
  using lattice units in orthogonal box = (0 0 0) to (18.44 18.44 18.44)
  create_atoms CPU = 0.000 seconds
Lattice spacing in x,y,z = 4.61 4.61 4.61
Created 256 atoms
  using lattice units in orthogonal box = (0 0 0) to (18.44 18.44 18.44)
  create_atoms CPU = 0.000 seconds
Reading MEAM library file library.meam with DATE: 2015-02-12
WARNING: Using 'neigh_modify every 1 delay 0 check yes' setting during minimization (src/min.cpp:187)
Neighbor list info ...
  update every 1 steps, delay 0 steps, check yes
  max neighbors/atom: 2000, page size: 100000
  master list distance cutoff = 7.26
  ghost atom cutoff = 7.26
  binsize = 3.63, bins = 6 6 6
  3 neighbor lists, perpetual/occasional/extra = 2 1 0
  (1) pair meam, perpetual
      attributes: full, newton on
      pair build: full/bin/atomonly
      stencil: full/bin/3d
      bin: standard
  (2) pair meam, perpetual, half/full from (1)
      attributes: half, newton on
      pair build: halffull/newton
      stencil: none
      bin: none
  (3) compute centro/atom, occasional, copy from (1)
      attributes: full, newton on
      pair build: copy
      stencil: none
      bin: none
Setting up cg style minimization ...
  Unit style    : metal
  Current step  : 0
Per MPI rank memory allocation (min/avg/max) = 13.11 | 13.11 | 13.11 Mbytes
   Step         PotEng           Lx             Ly             Lz           Press           Pxx            Pyy            Pzz          c_eatoms   
         0  -3782.144       18.44          18.44          18.44          0.018744771    0.018744771    0.018744771    0.018744771   -3782.144     
         1  -3782.144       18.44          18.44          18.44          0.018744771    0.018744771    0.018744771    0.018744771   -3782.144     
Loop time of 0.0288549 on 1 procs for 1 steps with 512 atoms

99.0% CPU use with 1 MPI tasks x no OpenMP threads

Minimization stats:
  Stopping criterion = energy tolerance
  Energy initial, next-to-last, final = 
     -3782.14400024612  -3782.14400024612  -3782.14400024612
  Force two-norm initial, final = 2.2675383e-13 2.2675194e-13
  Force max component initial, final = 1.6514567e-14 1.6514567e-14
  Final line search alpha, max atom move = 1 1.6514567e-14
  Iterations, force evaluations = 1 2

MPI task timing breakdown:
Section |  min time  |  avg time  |  max time  |%varavg| %total
---------------------------------------------------------------
Pair    | 0.027096   | 0.027096   | 0.027096   |   0.0 | 93.90
Neigh   | 0          | 0          | 0          |   0.0 |  0.00
Comm    | 3.2043e-05 | 3.2043e-05 | 3.2043e-05 |   0.0 |  0.11
Output  | 0          | 0          | 0          |   0.0 |  0.00
Modify  | 0          | 0          | 0          |   0.0 |  0.00
Other   |            | 0.001727   |            |       |  5.99

Nlocal:            512 ave         512 max         512 min
Histogram: 1 0 0 0 0 0 0 0 0 0
Nghost:           2863 ave        2863 max        2863 min
Histogram: 1 0 0 0 0 0 0 0 0 0
Neighs:          31232 ave       31232 max       31232 min
Histogram: 1 0 0 0 0 0 0 0 0 0
FullNghs:        62464 ave       62464 max       62464 min
Histogram: 1 0 0 0 0 0 0 0 0 0

Total # of neighbors = 62464
Ave neighs/atom = 122
Neighbor list builds = 0
Dangerous builds = 0
WARNING: No fixes with time integration, atoms won't move (src/verlet.cpp:60)
Setting up Verlet run ...
  Unit style    : metal
  Current step  : 1
  Time step     : 0.001
Per MPI rank memory allocation (min/avg/max) = 11.99 | 11.99 | 11.99 Mbytes
   Step         PotEng           Lx             Ly             Lz           Press           Pxx            Pyy            Pzz          c_eatoms   
         1  -3782.144       18.44          18.44          18.44          0.018744771    0.018744771    0.018744771    0.018744771   -3782.144     
Loop time of 5e-07 on 1 procs for 0 steps with 512 atoms

0.0% CPU use with 1 MPI tasks x no OpenMP threads

MPI task timing breakdown:
Section |  min time  |  avg time  |  max time  |%varavg| %total
---------------------------------------------------------------
Pair    | 0          | 0          | 0          |   0.0 |  0.00
Neigh   | 0          | 0          | 0          |   0.0 |  0.00
Comm    | 0          | 0          | 0          |   0.0 |  0.00
Output  | 0          | 0          | 0          |   0.0 |  0.00
Modify  | 0          | 0          | 0          |   0.0 |  0.00
Other   |            | 5e-07      |            |       |100.00

Nlocal:            512 ave         512 max         512 min
Histogram: 1 0 0 0 0 0 0 0 0 0
Nghost:           2863 ave        2863 max        2863 min
Histogram: 1 0 0 0 0 0 0 0 0 0
Neighs:          31232 ave       31232 max       31232 min
Histogram: 1 0 0 0 0 0 0 0 0 0
FullNghs:        62464 ave       62464 max       62464 min
Histogram: 1 0 0 0 0 0 0 0 0 0

Total # of neighbors = 62464
Ave neighs/atom = 122
Neighbor list builds = 0
Dangerous builds = 0
Deleted 1 atoms, new total = 511
WARNING: Using 'neigh_modify every 1 delay 0 check yes' setting during minimization (src/min.cpp:187)
Setting up cg style minimization ...
  Unit style    : metal
  Current step  : 0
Per MPI rank memory allocation (min/avg/max) = 13.11 | 13.11 | 13.11 Mbytes
   Step         PotEng           Lx             Ly             Lz           Press           Pxx            Pyy            Pzz          c_eatoms   
         0  -3771.327       18.44          18.44          18.44          394.86556      394.86556      394.86556      394.86556     -3771.327     
        10  -3772.2363      18.44          18.44          18.44          1723.19        1723.19        1723.19        1723.19       -3772.2363    
        20  -3772.2363      18.44          18.44          18.44          1723.6956      1723.6956      1723.6956      1723.6956     -3772.2363    
        21  -3772.2363      18.44          18.44          18.44          1723.6951      1723.6951      1723.6951      1723.6951     -3772.2363    
Loop time of 0.249074 on 1 procs for 21 steps with 511 atoms

99.8% CPU use with 1 MPI tasks x no OpenMP threads

Minimization stats:
  Stopping criterion = energy tolerance
  Energy initial, next-to-last, final = 
     -3771.32703030278  -3772.23628792566  -3772.23628792566
  Force two-norm initial, final = 4.7738198 2.3593916e-06
  Force max component initial, final = 1.885967 2.1923932e-07
  Final line search alpha, max atom move = 1 2.1923932e-07
  Iterations, force evaluations = 21 41

MPI task timing breakdown:
Section |  min time  |  avg time  |  max time  |%varavg| %total
---------------------------------------------------------------
Pair    | 0.247      | 0.247      | 0.247      |   0.0 | 99.17
Neigh   | 0          | 0          | 0          |   0.0 |  0.00
Comm    | 0.0002825  | 0.0002825  | 0.0002825  |   0.0 |  0.11
Output  | 2.1833e-05 | 2.1833e-05 | 2.1833e-05 |   0.0 |  0.01
Modify  | 0          | 0          | 0          |   0.0 |  0.00
Other   |            | 0.001774   |            |       |  0.71

Nlocal:            511 ave         511 max         511 min
Histogram: 1 0 0 0 0 0 0 0 0 0
Nghost:           2856 ave        2856 max        2856 min
Histogram: 1 0 0 0 0 0 0 0 0 0
Neighs:          31110 ave       31110 max       31110 min
Histogram: 1 0 0 0 0 0 0 0 0 0
FullNghs:        62220 ave       62220 max       62220 min
Histogram: 1 0 0 0 0 0 0 0 0 0

Total # of neighbors = 62220
Ave neighs/atom = 121.76125
Neighbor list builds = 0
Dangerous builds = 0
All done
Total number of atoms = 512
Initial energy of atoms = -3782.14400024604
Final energy of atoms = -3772.23628792565
Vacancy formation energy = 2.52071231990976
Total wall time: 0:00:00
