LAMMPS (23 Jun 2022)
Lattice spacing in x,y,z = 4.61 4.61 4.61
Created orthogonal box = (0 0 0) to (27.66 27.66 27.66)
  1 by 1 by 1 MPI processor grid
Lattice spacing in x,y,z = 4.61 4.61 4.61
Created 864 atoms
  using lattice units in orthogonal box = (0 0 0) to (27.66 27.66 27.66)
  create_atoms CPU = 0.000 seconds
Lattice spacing in x,y,z = 4.61 4.61 4.61
Created 864 atoms
  using lattice units in orthogonal box = (0 0 0) to (27.66 27.66 27.66)
  create_atoms CPU = 0.000 seconds
Reading MEAM library file library.meam with DATE: 2015-02-12
WARNING: Using 'neigh_modify every 1 delay 0 check yes' setting during minimization (src/min.cpp:187)
Neighbor list info ...
  update every 1 steps, delay 0 steps, check yes
  max neighbors/atom: 2000, page size: 100000
  master list distance cutoff = 7.26
  ghost atom cutoff = 7.26
  binsize = 3.63, bins = 8 8 8
  3 neighbor lists, perpetual/occasional/extra = 2 1 0
  (1) pair meam, perpetual
      attributes: full, newton on
      pair build: full/bin/atomonly
      stencil: full/bin/3d
      bin: standard
  (2) pair meam, perpetual, half/full from (1)
      attributes: half, newton on
      pair build: halffull/newton
      stencil: none
      bin: none
  (3) compute centro/atom, occasional, copy from (1)
      attributes: full, newton on
      pair build: copy
      stencil: none
      bin: none
Setting up cg style minimization ...
  Unit style    : metal
  Current step  : 0
Per MPI rank memory allocation (min/avg/max) = 17.3 | 17.3 | 17.3 Mbytes
   Step         PotEng           Lx             Ly             Lz           Press           Pxx            Pyy            Pzz          c_eatoms   
         0  -12764.736      27.66          27.66          27.66          0.018744771    0.018744771    0.018744771    0.018744772   -12764.736    
         1  -12764.736      27.66          27.66          27.66          0.018744771    0.018744771    0.018744771    0.018744771   -12764.736    
Loop time of 0.0630062 on 1 procs for 1 steps with 1728 atoms

99.3% CPU use with 1 MPI tasks x no OpenMP threads

Minimization stats:
  Stopping criterion = energy tolerance
  Energy initial, next-to-last, final = 
      -12764.736000829   -12764.736000829   -12764.736000829
  Force two-norm initial, final = 7.2750833e-13 6.5210828e-13
  Force max component initial, final = 2.9309888e-14 3.1752379e-14
  Final line search alpha, max atom move = 1 3.1752379e-14
  Iterations, force evaluations = 1 2

MPI task timing breakdown:
Section |  min time  |  avg time  |  max time  |%varavg| %total
---------------------------------------------------------------
Pair    | 0.058621   | 0.058621   | 0.058621   |   0.0 | 93.04
Neigh   | 0          | 0          | 0          |   0.0 |  0.00
Comm    | 4.3043e-05 | 4.3043e-05 | 4.3043e-05 |   0.0 |  0.07
Output  | 0          | 0          | 0          |   0.0 |  0.00
Modify  | 0          | 0          | 0          |   0.0 |  0.00
Other   |            | 0.004342   |            |       |  6.89

Nlocal:           1728 ave        1728 max        1728 min
Histogram: 1 0 0 0 0 0 0 0 0 0
Nghost:           5131 ave        5131 max        5131 min
Histogram: 1 0 0 0 0 0 0 0 0 0
Neighs:         105408 ave      105408 max      105408 min
Histogram: 1 0 0 0 0 0 0 0 0 0
FullNghs:       210816 ave      210816 max      210816 min
Histogram: 1 0 0 0 0 0 0 0 0 0

Total # of neighbors = 210816
Ave neighs/atom = 122
Neighbor list builds = 0
Dangerous builds = 0
WARNING: No fixes with time integration, atoms won't move (src/verlet.cpp:60)
Setting up Verlet run ...
  Unit style    : metal
  Current step  : 1
  Time step     : 0.001
Per MPI rank memory allocation (min/avg/max) = 16.17 | 16.17 | 16.17 Mbytes
   Step         PotEng           Lx             Ly             Lz           Press           Pxx            Pyy            Pzz          c_eatoms   
         1  -12764.736      27.66          27.66          27.66          0.018744771    0.018744771    0.018744771    0.018744772   -12764.736    
Loop time of 3.34e-07 on 1 procs for 0 steps with 1728 atoms

299.4% CPU use with 1 MPI tasks x no OpenMP threads

MPI task timing breakdown:
Section |  min time  |  avg time  |  max time  |%varavg| %total
---------------------------------------------------------------
Pair    | 0          | 0          | 0          |   0.0 |  0.00
Neigh   | 0          | 0          | 0          |   0.0 |  0.00
Comm    | 0          | 0          | 0          |   0.0 |  0.00
Output  | 0          | 0          | 0          |   0.0 |  0.00
Modify  | 0          | 0          | 0          |   0.0 |  0.00
Other   |            | 3.34e-07   |            |       |100.00

Nlocal:           1728 ave        1728 max        1728 min
Histogram: 1 0 0 0 0 0 0 0 0 0
Nghost:           5131 ave        5131 max        5131 min
Histogram: 1 0 0 0 0 0 0 0 0 0
Neighs:         105408 ave      105408 max      105408 min
Histogram: 1 0 0 0 0 0 0 0 0 0
FullNghs:       210816 ave      210816 max      210816 min
Histogram: 1 0 0 0 0 0 0 0 0 0

Total # of neighbors = 210816
Ave neighs/atom = 122
Neighbor list builds = 0
Dangerous builds = 0
Deleted 1 atoms, new total = 1727
WARNING: Using 'neigh_modify every 1 delay 0 check yes' setting during minimization (src/min.cpp:187)
Setting up cg style minimization ...
  Unit style    : metal
  Current step  : 0
Per MPI rank memory allocation (min/avg/max) = 17.3 | 17.3 | 17.3 Mbytes
   Step         PotEng           Lx             Ly             Lz           Press           Pxx            Pyy            Pzz          c_eatoms   
         0  -12753.919      27.66          27.66          27.66          117.01039      117.01039      117.01039      117.01039     -12753.919    
        10  -12754.834      27.66          27.66          27.66          510.35236      510.35236      510.35236      510.35236     -12754.834    
        20  -12754.834      27.66          27.66          27.66          509.94076      509.94076      509.94076      509.94076     -12754.834    
        30  -12754.834      27.66          27.66          27.66          509.93516      509.93516      509.93516      509.93516     -12754.834    
        40  -12754.834      27.66          27.66          27.66          509.93513      509.93513      509.93513      509.93513     -12754.834    
        50  -12754.834      27.66          27.66          27.66          509.93513      509.93513      509.93513      509.93513     -12754.834    
Loop time of 1.85995 on 1 procs for 50 steps with 1727 atoms

99.5% CPU use with 1 MPI tasks x no OpenMP threads

Minimization stats:
  Stopping criterion = energy tolerance
  Energy initial, next-to-last, final = 
     -12753.9190308857  -12754.8338418346  -12754.8338418346
  Force two-norm initial, final = 4.7738198 6.0396839e-11
  Force max component initial, final = 1.885967 1.3854695e-11
  Final line search alpha, max atom move = 1 1.3854695e-11
  Iterations, force evaluations = 50 99

MPI task timing breakdown:
Section |  min time  |  avg time  |  max time  |%varavg| %total
---------------------------------------------------------------
Pair    | 1.8517     | 1.8517     | 1.8517     |   0.0 | 99.56
Neigh   | 0          | 0          | 0          |   0.0 |  0.00
Comm    | 0.0012636  | 0.0012636  | 0.0012636  |   0.0 |  0.07
Output  | 0.00010096 | 0.00010096 | 0.00010096 |   0.0 |  0.01
Modify  | 0          | 0          | 0          |   0.0 |  0.00
Other   |            | 0.00691    |            |       |  0.37

Nlocal:           1727 ave        1727 max        1727 min
Histogram: 1 0 0 0 0 0 0 0 0 0
Nghost:           5124 ave        5124 max        5124 min
Histogram: 1 0 0 0 0 0 0 0 0 0
Neighs:         105286 ave      105286 max      105286 min
Histogram: 1 0 0 0 0 0 0 0 0 0
FullNghs:       210572 ave      210572 max      210572 min
Histogram: 1 0 0 0 0 0 0 0 0 0

Total # of neighbors = 210572
Ave neighs/atom = 121.92936
Neighbor list builds = 0
Dangerous builds = 0
All done
Total number of atoms = 1728
Initial energy of atoms = -12764.7360008305
Final energy of atoms = -12754.8338418346
Vacancy formation energy = 2.51515899542028
Total wall time: 0:00:02
