LAMMPS (23 Jun 2022 - Update 1)
# Compute elastic constant tensor for a crystal
#
# Written by Aidan Thompson (Sandia, athomps@sandia.gov)
#
#  This script uses the following three include files.
#
#   init.mod      (must be modified for different crystal structures)
# 	       	  Define units, deformation parameters and initial
#		  configuration of the atoms and simulation cell.
#
#
#   potential.mod    (must be modified for different pair styles)
# 		     Define pair style and other attributes
#		     not stored in restart file
#
#
#   displace.mod    (displace.mod should not need to be modified)
# 		    Perform positive and negative box displacements
# 		    in direction ${dir} and size ${up}.
# 		    It uses the resultant changes
#		    in stress to compute one
# 		    row of the elastic stiffness tensor
#
#		    Inputs variables:
#		    	   dir = the Voigt deformation component
#		    		    (1,2,3,4,5,6)
#		    Global constants:
#       	    	   up = the deformation magnitude (strain units)
#       		   cfac = conversion from LAMMPS pressure units to
#               	   output units for elastic constants
#
#
#  To run this on a different system, it should only be necessary to
#  modify the files init.mod and potential.mod. In order to calculate
#  the elastic constants correctly, care must be taken to specify
#  the correct units in init.mod (units, cfac and cunits). It is also
#  important to verify that the minimization of energy w.r.t atom
#  positions in the deformed cell is fully converged.
#  One indication of this is that the elastic constants are insensitive
#  to the choice of the variable ${up} in init.mod. Another is to check
#  the final max and two-norm forces reported in the log file. If you know
#  that minimization is not required, you can set maxiter = 0.0 in
#  init.mod.
#

include init.mod
# NOTE: This script can be modified for different atomic structures,
# units, etc. See in.elastic for more info.
#

# Define the finite deformation size. Try several values of this
# variable to verify that results do not depend on it.
variable up equal 1.0e-6

# Define the amount of random jiggle for atoms
# This prevents atoms from staying on saddle points
variable atomjiggle equal 1.0e-5

# Uncomment one of these blocks, depending on what units
# you are using in LAMMPS and for output

# metal units, elastic constants in eV/A^3
#units		metal
#variable cfac equal 6.2414e-7
#variable cunits string eV/A^3

# metal units, elastic constants in GPa
units		metal
variable cfac equal 1.0e-4
variable cunits string GPa

# real units, elastic constants in GPa
#units		real
#variable cfac equal 1.01325e-4
#variable cunits string GPa

# Define minimization parameters
variable etol equal 0.0
variable ftol equal 1.0e-10
variable maxiter equal 500
variable maxeval equal 1000
variable dmax equal 1.0e-2

# generate the box and atom positions using a diamond lattice
# variable a equal 5.43

boundary	p p p

lattice         fcc 4.800
Lattice spacing in x,y,z = 4.8 4.8 4.8
region		simbox prism -1.0 1.0 -1.0 1.0 -1.0 1.0 0.0 0.0 0.0
create_box	2 simbox
Created triclinic box = (-4.8 -4.8 -4.8) to (4.8 4.8 4.8) with tilt (0 0 0)
  1 by 1 by 1 MPI processor grid
lattice 	fcc 4.800 orient x 1 0 0 orient y 0 1 0 orient z 0 0 1
Lattice spacing in x,y,z = 4.8 4.8 4.8
create_atoms	1 region simbox
Created 32 atoms
  using lattice units in triclinic box = (-4.8 -4.8 -4.8) to (4.8 4.8 4.8) with tilt (0 0 0)
  create_atoms CPU = 0.000 seconds
lattice 	fcc 4.800  origin 0 0 0.5 orient x 1 0 0 orient y 0 1 0 orient z 0 0 1
Lattice spacing in x,y,z = 4.8 4.8 4.8
create_atoms	2 region simbox
Created 32 atoms
  using lattice units in triclinic box = (-4.8 -4.8 -4.8) to (4.8 4.8 4.8) with tilt (0 0 0)
  create_atoms CPU = 0.000 seconds

# Need to set mass to something, just to satisfy LAMMPS
mass 1 47.867
mass 2 14.007

include potential.mod
# NOTE: This script can be modified for different pair styles
# See in.elastic for more info.

# Choose potential
pair_style	meam
pair_coeff * * library_HfN.meam Hf N HfN.meam Hf N
Reading MEAM library file library_HfN.meam with DATE: 2015-02-12

# Setup neighbor style
neighbor 1.0 nsq
neigh_modify once no every 1 delay 0 check yes

# Setup minimization style
min_style	     cg
min_modify	     dmax ${dmax} line quadratic
min_modify	     dmax 0.01 line quadratic

# Setup output
thermo		1
thermo_style custom step temp pe press pxx pyy pzz pxy pxz pyz lx ly lz vol
thermo_modify norm no

# Compute initial state
fix 3 all box/relax  aniso 0.0
minimize ${etol} ${ftol} ${maxiter} ${maxeval}
minimize 0 ${ftol} ${maxiter} ${maxeval}
minimize 0 1e-10 ${maxiter} ${maxeval}
minimize 0 1e-10 500 ${maxeval}
minimize 0 1e-10 500 1000
Neighbor list info ...
  update every 1 steps, delay 0 steps, check yes
  max neighbors/atom: 2000, page size: 100000
  master list distance cutoff = 8.38
  ghost atom cutoff = 8.38
  2 neighbor lists, perpetual/occasional/extra = 2 0 0
  (1) pair meam, perpetual
      attributes: full, newton on
      pair build: full/nsq
      stencil: none
      bin: none
  (2) pair meam, perpetual, half/full from (1)
      attributes: half, newton on
      pair build: halffull/newton
      stencil: none
      bin: none
Per MPI rank memory allocation (min/avg/max) = 10.22 | 10.22 | 10.22 Mbytes
   Step          Temp          PotEng         Press           Pxx            Pyy            Pzz            Pxy            Pxz            Pyz             Lx             Ly             Lz           Volume    
         0   0              647.98301      6887384.3      6887384.3      6887384.3      6887384.3      1.0301696e-10  1.4154012e-10  7.72037e-11    9.6            9.6            9.6            884.736      
         1   0              646.84242      6881322.8      6881322.8      6881322.8      6881322.8      5.1610634e-11  5.1453662e-11 -2.1867821e-10  9.60096        9.60096        9.60096        885.00145    
         2   0              645.7026       6875266.1      6875266.1      6875266.1      6875266.1     -2.5565464e-11 -2.3147221e-10 -2.0575306e-10  9.60192        9.60192        9.60192        885.26695    
         3   0              644.56356      6869214.3      6869214.3      6869214.3      6869214.3      2.0606752e-10  1.7997989e-10  3.8567129e-11  9.60288        9.60288        9.60288        885.5325     
         4   0              643.42529      6863167.4      6863167.4      6863167.4      6863167.4      1.2889885e-10 -2.1848162e-10  5.140742e-11   9.60384        9.60384        9.60384        885.79811    
         5   0              642.2878       6857125.3      6857125.3      6857125.3      6857125.3      1.0316499e-10  2.8265594e-10  2.3126403e-10  9.6048         9.6048         9.6048         886.06377    
         6   0              641.15108      6851088        6851088        6851088        6851088        9.1527933e-11 -2.7078685e-10 -2.9541545e-10  9.60576        9.60576        9.60576        886.32948    
         7   0              640.01513      6845055.6      6845055.6      6845055.6      6845055.6      1.4289604e-10 -2.6713e-11    -3.3384779e-10  9.60672        9.60672        9.60672        886.59525    
         8   0              638.87996      6839028        6839028        6839028        6839028       -1.1389118e-10  1.2735934e-10  7.7018707e-11  9.60768        9.60768        9.60768        886.86107    
         9   0              637.74556      6833005.3      6833005.3      6833005.3      6833005.3      1.4447853e-11  1.2734808e-10  1.4115864e-10  9.60864        9.60864        9.60864        887.12694    
        10   0              636.61194      6826987.4      6826987.4      6826987.4      6826987.4     -1.1313823e-11 -6.5094589e-11  1.2828758e-10  9.6096         9.6096         9.6096         887.39286    
        11   0              635.47908      6820974.3      6820974.3      6820974.3      6820974.3      9.1260846e-11  3.3252412e-10  7.6949487e-11  9.61056        9.61056        9.61056        887.65884    
        12   0              634.347        6814966.1      6814966.1      6814966.1      6814966.1      3.9955799e-11 -1.5474941e-10 -3.4616894e-10  9.61152        9.61152        9.61152        887.92487    
        13   0              633.21569      6808962.6      6808962.6      6808962.6      6808962.6      3.9899142e-11 -1.0340732e-10 -1.4098954e-10  9.61248        9.61248        9.61248        888.19096    
        14   0              632.08515      6802964        6802964        6802964        6802964        6.5484004e-11  2.2979865e-10 -1.7938748e-10  9.61344        9.61344        9.61344        888.4571     
        15   0              630.95538      6796970.2      6796970.2      6796970.2      6796970.2      1.4213022e-11 -7.7672704e-11  5.1238215e-11  9.6144         9.6144         9.6144         888.72329    
        16   0              629.82638      6790981.2      6790981.2      6790981.2      6790981.2      1.41877e-11   -7.7622726e-11 -3.3294865e-10  9.61536        9.61536        9.61536        888.98953    
        17   0              628.69815      6784997        6784997        6784997        6784997       -3.7053401e-11 -3.9167111e-11 -1.1521694e-10  9.61632        9.61632        9.61632        889.25583    
        18   0              627.57069      6779017.5      6779017.5      6779017.5      6779017.5     -1.1350187e-11  8.8851797e-11  1.1518244e-10  9.61728        9.61728        9.61728        889.52218    
        19   0              626.444        6773042.9      6773042.9      6773042.9      6773042.9      3.9785703e-11 -1.798267e-10  -3.7103231e-10  9.61824        9.61824        9.61824        889.78858    
        20   0              625.31807      6767073        6767073        6767073        6767073        1.1649508e-10  6.3271147e-11 -2.1743659e-10  9.6192         9.6192         9.6192         890.05504    
        21   0              624.19292      6761107.9      6761107.9      6761107.9      6761107.9      3.9629762e-11  5.0492272e-11 -3.708102e-10   9.62016        9.62016        9.62016        890.32155    
        22   0              623.06853      6755147.6      6755147.6      6755147.6      6755147.6      1.4018809e-11 -2.3071633e-10 -4.473956e-10   9.62112        9.62112        9.62112        890.58811    
        23   0              621.94491      6749192.1      6749192.1      6749192.1      6749192.1     -1.648677e-10   2.1664101e-10  1.1501015e-10  9.62208        9.62208        9.62208        890.85473    
        24   0              620.82205      6743241.3      6743241.3      6743241.3      6743241.3     -6.2332636e-11 -7.7224151e-11 -2.6827672e-10  9.62304        9.62304        9.62304        891.1214     
        25   0              619.69996      6737295.3      6737295.3      6737295.3      6737295.3     -8.7845526e-11 -1.6657337e-10 -3.8313778e-10  9.624          9.624          9.624          891.38812    
        26   0              618.57864      6731354.1      6731354.1      6731354.1      6731354.1      3.9843145e-11 -8.9892398e-11 -3.5748827e-10  9.62496        9.62496        9.62496        891.6549     
        27   0              617.45808      6725417.6      6725417.6      6725417.6      6725417.6     -1.1335413e-10 -2.9405691e-10 -7.6581711e-11  9.62592        9.62592        9.62592        891.92173    
        28   0              616.33829      6719485.9      6719485.9      6719485.9      6719485.9      1.1633768e-10 -5.1506264e-11 -3.0623521e-10  9.62688        9.62688        9.62688        892.18861    
        29   0              615.21926      6713559        6713559        6713559        6713559       -3.681412e-11   5.0583461e-11  5.1023936e-11  9.62784        9.62784        9.62784        892.45555    
        30   0              614.101        6707636.8      6707636.8      6707636.8      6707636.8      1.4164701e-10 -1.9169646e-10 -2.2953904e-10  9.6288         9.6288         9.6288         892.72254    
        31   0              612.9835       6701719.3      6701719.3      6701719.3      6701719.3     -8.7792601e-11 -3.8738834e-13 -4.9718587e-10  9.62976        9.62976        9.62976        892.98958    
        32   0              611.86676      6695806.6      6695806.6      6695806.6      6695806.6      1.4162973e-11  3.7872735e-11  2.5489087e-11  9.63072        9.63072        9.63072        893.25667    
        33   0              610.75079      6689898.7      6689898.7      6689898.7      6689898.7     -3.6818242e-11 -1.022603e-10  -1.0192587e-10  9.63168        9.63168        9.63168        893.52382    
        34   0              609.63557      6683995.4      6683995.4      6683995.4      6683995.4     -3.6814828e-11  1.2428933e-11 -2.6747541e-10  9.63264        9.63264        9.63264        893.79102    
        35   0              608.52112      6678096.9      6678096.9      6678096.9      6678096.9     -1.1326208e-10  2.1618139e-10 -2.8012858e-10  9.6336         9.6336         9.6336         894.05828    
        36   0              607.40744      6672203.2      6672203.2      6672203.2      6672203.2      1.4076052e-11  2.9251895e-10  1.5275173e-10  9.63456        9.63456        9.63456        894.32559    
        37   0              606.29451      6666314.1      6666314.1      6666314.1      6666314.1     -1.137925e-11  -3.0564103e-10 -2.6723564e-10  9.63552        9.63552        9.63552        894.59295    
        38   0              605.18234      6660429.8      6660429.8      6660429.8      6660429.8     -1.3862605e-10 -3.3096687e-10 -3.6892942e-10  9.63648        9.63648        9.63648        894.86037    
        39   0              604.07094      6654550.3      6654550.3      6654550.3      6654550.3     -1.1427586e-11 -1.7822692e-10 -5.0871611e-10  9.63744        9.63744        9.63744        895.12783    
        40   0              602.96029      6648675.4      6648675.4      6648675.4      6648675.4      3.9370924e-11 -2.1628977e-10 -2.4156796e-10  9.6384         9.6384         9.6384         895.39536    
        41   0              601.8504       6642805.2      6642805.2      6642805.2      6642805.2     -6.2392023e-11  1.1426895e-10  2.5420609e-11  9.63936        9.63936        9.63936        895.66293    
        42   0              600.74128      6636939.8      6636939.8      6636939.8      6636939.8     -1.147716e-11   3.8021917e-11 -3.8119524e-11  9.64032        9.64032        9.64032        895.93056    
        43   0              599.63291      6631079.1      6631079.1      6631079.1      6631079.1      3.9322036e-11  1.2631274e-11 -2.1594612e-10  9.64128        9.64128        9.64128        896.19824    
        44   0              598.5253       6625223        6625223        6625223        6625223        1.1549154e-10  2.1583635e-10  1.0159135e-10  9.64224        9.64224        9.64224        896.46598    
        45   0              597.41844      6619371.7      6619371.7      6619371.7      6619371.7      1.3888899e-11  1.1423697e-10 -1.2695127e-10  9.6432         9.6432         9.6432         896.73376    
        46   0              596.31235      6613525.1      6613525.1      6613525.1      6613525.1      3.9194137e-11 -2.6651114e-10  5.0765344e-11  9.64416        9.64416        9.64416        897.00161    
        47   0              595.20701      6607683.2      6607683.2      6607683.2      6607683.2      3.9210283e-11  8.884578e-11   0              9.64512        9.64512        9.64512        897.2695     
        48   0              594.10243      6601845.9      6601845.9      6601845.9      6601845.9     -3.693208e-11   2.2836663e-10  1.3952135e-10  9.64608        9.64608        9.64608        897.53745    
        49   0              592.9986       6596013.3      6596013.3      6596013.3      6596013.3     -6.2751625e-11 -1.2595059e-11 -3.0431935e-10  9.64704        9.64704        9.64704        897.80545    
        50   0              591.89553      6590185.4      6590185.4      6590185.4      6590185.4      6.401294e-11   1.1093434e-13 -2.9155233e-10  9.648          9.648          9.648          898.07351    
        51   0              590.79322      6584362.2      6584362.2      6584362.2      6584362.2     -1.1942084e-11 -2.5207947e-11 -2.661205e-10   9.64896        9.64896        9.64896        898.34161    
        52   0              589.69166      6578543.6      6578543.6      6578543.6      6578543.6      1.4006512e-10 -3.7989595e-10 -4.0539595e-10  9.64992        9.64992        9.64992        898.60978    
        53   0              588.59085      6572729.7      6572729.7      6572729.7      6572729.7     -1.1969762e-11  1.5216672e-10 -3.0395623e-10  9.65088        9.65088        9.65088        898.87799    
        54   0              587.4908       6566920.4      6566920.4      6566920.4      6566920.4      3.8531665e-11  8.8841901e-11  6.3305322e-11  9.65184        9.65184        9.65184        899.14626    
        55   0              586.3915       6561115.8      6561115.8      6561115.8      6561115.8      1.3186449e-11  3.8212114e-11  0              9.6528         9.6528         9.6528         899.41458    
        56   0              585.29296      6555315.8      6555315.8      6555315.8      6555315.8      1.1438842e-10 -2.7811122e-10 -1.3918863e-10  9.65376        9.65376        9.65376        899.68296    
        57   0              584.19517      6549520.5      6549520.5      6549520.5      6549520.5      1.1437886e-10  1.5208863e-10 -1.3914711e-10  9.65472        9.65472        9.65472        899.95138    
        58   0              583.09813      6543729.9      6543729.9      6543729.9      6543729.9      1.3122642e-11  8.8839245e-11 -1.3910561e-10  9.65568        9.65568        9.65568        900.21987    
        59   0              582.00184      6537943.8      6537943.8      6537943.8      6537943.8     -1.219254e-11  -5.0225596e-11 -2.6548607e-10  9.65664        9.65664        9.65664        900.4884     
        60   0              580.90631      6532162.5      6532162.5      6532162.5      6532162.5     -6.27552e-11    3.6688314e-10  8.8468968e-11  9.6576         9.6576         9.6576         900.75699    
        61   0              579.81152      6526385.7      6526385.7      6526385.7      6526385.7      8.8839158e-11  6.3567752e-11  1.2634656e-11  9.65856        9.65856        9.65856        901.02563    
        62   0              578.71749      6520613.6      6520613.6      6520613.6      6520613.6     -1.2143393e-11  5.0943633e-11  1.2630889e-11  9.65952        9.65952        9.65952        901.29433    
        63   0              577.6242       6514846.1      6514846.1      6514846.1      6514846.1      6.3661856e-11  1.8985249e-10 -7.5762744e-11  9.66048        9.66048        9.66048        901.56308    
        64   0              576.53167      6509083.3      6509083.3      6509083.3      6509083.3     -6.2657399e-11  2.5717902e-11 -2.1459712e-10  9.66144        9.66144        9.66144        901.83188    
        65   0              575.43989      6503325        6503325        6503325        6503325        8.8645253e-11  1.311629e-11  -1.7667437e-10  9.6624         9.6624         9.6624         902.10074    
        66   0              574.34885      6497571.4      6497571.4      6497571.4      6497571.4      1.1382998e-10 -3.7325339e-11 -3.7847512e-11  9.66336        9.66336        9.66336        902.36964    
        67   0              573.25857      6491822.4      6491822.4      6491822.4      6491822.4      6.335351e-11   2.0234088e-10  1.6395702e-10  9.66432        9.66432        9.66432        902.63861    
        68   0              572.16903      6486078        6486078        6486078        6486078        6.3311305e-11  3.8398006e-11  0              9.66528        9.66528        9.66528        902.90762    
        69   0              571.08024      6480338.3      6480338.3      6480338.3      6480338.3     -1.233017e-11   6.3621263e-11 -1.8906847e-10  9.66624        9.66624        9.66624        903.17669    
        70   0              569.9922       6474603.1      6474603.1      6474603.1      6474603.1      8.8410054e-11 -1.379851e-10  -3.6542348e-10  9.6672         9.6672         9.6672         903.44582    
        71   0              568.9049       6468872.5      6468872.5      6468872.5      6468872.5     -1.2400131e-11  1.3921676e-10 -3.5271758e-10  9.66816        9.66816        9.66816        903.71499    
        72   0              567.81835      6463146.6      6463146.6      6463146.6      6463146.6     -6.2799444e-11 -1.126653e-10  -1.3852635e-10  9.66912        9.66912        9.66912        903.98422    
        73   0              566.73255      6457425.2      6457425.2      6457425.2      6457425.2      1.2846946e-11 -2.4479386e-11 -2.2661198e-10  9.67008        9.67008        9.67008        904.25351    
        74   0              565.64749      6451708.4      6451708.4      6451708.4      6451708.4      6.3177693e-11 -3.7032451e-11 -3.7757417e-11  9.67104        9.67104        9.67104        904.52284    
        75   0              564.56318      6445996.2      6445996.2      6445996.2      6445996.2      1.6379574e-10  2.1464518e-10  2.0131293e-10  9.672          9.672          9.672          904.79223    
        76   0              563.47961      6440288.6      6440288.6      6440288.6      6440288.6     -3.7639132e-11  1.335369e-11  -2.2640963e-10  9.67296        9.67296        9.67296        905.06168    
        77   0              562.39679      6434585.6      6434585.6      6434585.6      6434585.6      6.2936295e-11  1.768445e-10  -1.8861853e-10  9.67392        9.67392        9.67392        905.33117    
        78   0              561.31472      6428887.2      6428887.2      6428887.2      6428887.2      8.8026766e-11 -1.1745157e-11 -8.7995779e-11  9.67488        9.67488        9.67488        905.60072    
        79   0              560.23338      6423193.4      6423193.4      6423193.4      6423193.4      3.7725451e-11  8.5079896e-13 -1.3823793e-10  9.67584        9.67584        9.67584        905.87033    
        80   0              559.15279      6417504.1      6417504.1      6417504.1      6417504.1      3.7729936e-11  1.0138262e-10  1.6332348e-10  9.6768         9.6768         9.6768         906.13999    
        81   0              558.07294      6411819.4      6411819.4      6411819.4      6411819.4      1.2540292e-11 -4.9337537e-11 -2.2607291e-10  9.67776        9.67776        9.67776        906.4097     
        82   0              556.99384      6406139.2      6406139.2      6406139.2      6406139.2      1.1295088e-10 -2.8785909e-10 -2.5111738e-10  9.67872        9.67872        9.67872        906.67946    
        83   0              555.91548      6400463.6      6400463.6      6400463.6      6400463.6     -1.2624388e-11 -4.9257642e-11 -1.7572987e-10  9.67968        9.67968        9.67968        906.94928    
        84   0              554.83785      6394792.5      6394792.5      6394792.5      6394792.5      6.2782942e-11  3.8997625e-10  3.639036e-10   9.68064        9.68064        9.68064        907.21915    
        85   0              553.76097      6389126        6389126        6389126        6389126        8.7832609e-11 -2.4088564e-11 -1.0035734e-10  9.6816         9.6816         9.6816         907.48908    
        86   0              552.68483      6383464        6383464        6383464        6383464        1.12883e-10   -1.9962932e-10 -3.0098248e-10  9.68256        9.68256        9.68256        907.75906    
        87   0              551.60944      6377806.6      6377806.6      6377806.6      6377806.6      3.7458343e-11 -7.41727e-11   -3.0089297e-10  9.68352        9.68352        9.68352        908.02909    
        88   0              550.53478      6372153.7      6372153.7      6372153.7      6372153.7     -1.2706965e-11 -6.1592011e-11 -3.7600437e-11  9.68448        9.68448        9.68448        908.29918    
        89   0              549.46086      6366505.3      6366505.3      6366505.3      6366505.3      1.3763362e-10  1.6398698e-10 -3.7589258e-11  9.68544        9.68544        9.68544        908.56931    
        90   0              548.38768      6360861.5      6360861.5      6360861.5      6360861.5      3.7377281e-11  5.122909e-11   1.8789041e-10  9.6864         9.6864         9.6864         908.83951    
        91   0              547.31524      6355222.2      6355222.2      6355222.2      6355222.2      1.2331151e-11 -1.365956e-10  -1.7531226e-10  9.68736        9.68736        9.68736        909.10975    
        92   0              546.24354      6349587.4      6349587.4      6349587.4      6349587.4      1.8751012e-10  6.376739e-11  -2.5037164e-10  9.68832        9.68832        9.68832        909.38005    
        93   0              545.17257      6343957.1      6343957.1      6343957.1      6343957.1      1.1237285e-10  2.514964e-10   1.5017834e-10  9.68928        9.68928        9.68928        909.65041    
        94   0              544.10234      6338331.3      6338331.3      6338331.3      6338331.3      1.1230611e-10  2.6246123e-11 -2.377117e-10   9.69024        9.69024        9.69024        909.92082    
        95   0              543.03286      6332710.1      6332710.1      6332710.1      6332710.1      1.2347228e-11  2.2638212e-10  1.7510394e-10  9.6912         9.6912         9.6912         910.19128    
        96   0              541.9641       6327093.3      6327093.3      6327093.3      6327093.3     -6.2709962e-11 -4.8741735e-11 -2.0005933e-10  9.69216        9.69216        9.69216        910.46179    
        97   0              540.89609      6321481.1      6321481.1      6321481.1      6321481.1      6.2316287e-11  1.637976e-10  -1.1249994e-10  9.69312        9.69312        9.69312        910.73236    
        98   0              539.82881      6315873.4      6315873.4      6315873.4      6315873.4     -1.2856183e-11  1.3222371e-12 -1.7494793e-10  9.69408        9.69408        9.69408        911.00298    
        99   0              538.76226      6310270.2      6310270.2      6310270.2      6310270.2      6.2054397e-11 -3.613094e-11  -2.9982165e-10  9.69504        9.69504        9.69504        911.27366    
       100   0              537.69645      6304671.4      6304671.4      6304671.4      6304671.4      3.705114e-11  -1.7347274e-10 -1.6235516e-10  9.696          9.696          9.696          911.54439    
       101   0              536.63138      6299077.2      6299077.2      6299077.2      6299077.2      6.197593e-11  -1.2345576e-10 -2.4970299e-10  9.69696        9.69696        9.69696        911.81517    
       102   0              535.56704      6293487.5      6293487.5      6293487.5      6293487.5      3.6976683e-11  2.136047e-10   2.4962884e-11  9.69792        9.69792        9.69792        912.086      
       103   0              534.50343      6287902.2      6287902.2      6287902.2      6287902.2      8.6913689e-11  5.1355545e-11 -9.982189e-11   9.69888        9.69888        9.69888        912.35689    
       104   0              533.44056      6282321.4      6282321.4      6282321.4      6282321.4     -1.2982909e-11 -7.3375209e-11 -3.7422096e-11  9.69984        9.69984        9.69984        912.62784    
       105   0              532.37842      6276745.2      6276745.2      6276745.2      6276745.2      1.8654096e-10 -8.5798958e-11 -1.745846e-10   9.7008         9.7008         9.7008         912.89883    
       106   0              531.31701      6271173.3      6271173.3      6271173.3      6271173.3      1.2066477e-11  1.7605045e-10  3.615322e-10   9.70176        9.70176        9.70176        913.16989    
       107   0              530.25634      6265606        6265606        6265606        6265606        6.1881127e-11  1.7602295e-10 -8.7240492e-11  9.70272        9.70272        9.70272        913.44099    
       108   0              529.1964       6260043.2      6260043.2      6260043.2      6260043.2     -1.2909814e-11  8.8780853e-11  0              9.70368        9.70368        9.70368        913.71215    
       109   0              528.13718      6254484.8      6254484.8      6254484.8      6254484.8     -3.7928765e-11 -2.4752014e-10 -3.6121042e-10  9.70464        9.70464        9.70464        913.98336    
       110   0              527.0787       6248930.8      6248930.8      6248930.8      6248930.8     -3.798329e-11   2.0084408e-10  9.9614689e-11  9.7056         9.7056         9.7056         914.25462    
       111   0              526.02096      6243381.4      6243381.4      6243381.4      6243381.4      3.6696865e-11 -8.5498062e-11 -2.8630726e-10  9.70656        9.70656        9.70656        914.52594    
       112   0              524.96394      6237836.4      6237836.4      6237836.4      6237836.4      1.6111125e-10 -1.6011475e-10 -1.7422229e-10  9.70752        9.70752        9.70752        914.79732    
       113   0              523.90765      6232295.8      6232295.8      6232295.8      6232295.8      1.1127984e-10 -1.0753532e-11 -2.4881516e-10  9.70848        9.70848        9.70848        915.06874    
       114   0              522.85209      6226759.8      6226759.8      6226759.8      6226759.8      8.6414468e-11 -1.2265938e-10 -2.8605257e-10  9.70944        9.70944        9.70944        915.34022    
       115   0              521.79726      6221228.1      6221228.1      6221228.1      6221228.1     -1.3175786e-11  1.5093593e-10  1.6163394e-10  9.7104         9.7104         9.7104         915.61176    
       116   0              520.74316      6215700.9      6215700.9      6215700.9      6215700.9      6.1417422e-11 -8.5248422e-11 -3.3560171e-10  9.71136        9.71136        9.71136        915.88334    
       117   0              519.68978      6210178.1      6210178.1      6210178.1      6210178.1      1.1816665e-11  1.4209458e-11 -1.2426008e-10  9.71232        9.71232        9.71232        916.15499    
       118   0              518.63714      6204659.8      6204659.8      6204659.8      6204659.8     -1.3065555e-11  2.1298694e-10 -2.4844647e-11  9.71328        9.71328        9.71328        916.42668    
       119   0              517.58522      6199145.8      6199145.8      6199145.8      6199145.8      8.6268326e-11  1.4250046e-11 -1.2418641e-10  9.71424        9.71424        9.71424        916.69843    
       120   0              516.53403      6193636.3      6193636.3      6193636.3      6193636.3      1.1096001e-10  1.4270307e-11 -8.690472e-11   9.7152         9.7152         9.7152         916.97023    
       121   0              515.48357      6188131.2      6188131.2      6188131.2      6188131.2      3.6390149e-11  3.1216127e-10  2.2340305e-10  9.71616        9.71616        9.71616        917.24209    
       122   0              514.43383      6182630.5      6182630.5      6182630.5      6182630.5      8.6006691e-11  1.1357156e-10 -9.9260818e-11  9.71712        9.71712        9.71712        917.514      
       123   0              513.38482      6177134.3      6177134.3      6177134.3      6177134.3      8.5944849e-11 -1.3451619e-10 -1.6125103e-10  9.71808        9.71808        9.71808        917.78596    
       124   0              512.33653      6171642.4      6171642.4      6171642.4      6171642.4      1.3550068e-10 -1.0449434e-11 -2.1080426e-10  9.71904        9.71904        9.71904        918.05798    
       125   0              511.28897      6166155        6166155        6166155        6166155        6.1109875e-11 -3.5215106e-11 -1.8594865e-10  9.72           9.72           9.72           918.33005    
       126   0              510.24213      6160671.9      6160671.9      6160671.9      6160671.9      8.5793198e-11 -2.3346679e-10 -3.2221551e-10  9.72096        9.72096        9.72096        918.60217    
       127   0              509.19602      6155193.3      6155193.3      6155193.3      6155193.3      3.6225073e-11 -1.8381637e-10 -9.9113867e-11  9.72192        9.72192        9.72192        918.87435    
       128   0              508.15063      6149719        6149719        6149719        6149719        1.1553302e-11  3.983839e-10   4.2110917e-10  9.72288        9.72288        9.72288        919.14658    
       129   0              507.10597      6144249.2      6144249.2      6144249.2      6144249.2      8.5822277e-11 -1.5889511e-10 -2.971655e-10   9.72384        9.72384        9.72384        919.41887    
       130   0              506.06203      6138783.7      6138783.7      6138783.7      6138783.7     -1.3704603e-10  8.874081e-11   1.3616052e-10  9.7248         9.7248         9.7248         919.69121    
       131   0              505.01881      6133322.6      6133322.6      6133322.6      6133322.6      1.1893529e-11 -1.9587619e-10 -1.2374564e-11  9.72576        9.72576        9.72576        919.9636     
       132   0              503.97631      6127865.9      6127865.9      6127865.9      6127865.9     -1.2818286e-11 -1.0230517e-11 -2.1030531e-10  9.72672        9.72672        9.72672        920.23605    
       133   0              502.93454      6122413.6      6122413.6      6122413.6      6122413.6     -1.2814035e-11  3.9265673e-11 -1.2367238e-11  9.72768        9.72768        9.72768        920.50855    
       134   0              501.89348      6116965.7      6116965.7      6116965.7      6116965.7     -1.2828435e-11  1.0109614e-10 -1.2363578e-10  9.72864        9.72864        9.72864        920.78111    
       135   0              500.85315      6111522.1      6111522.1      6111522.1      6111522.1     -8.7650716e-11  2.9884909e-10  7.415951e-11   9.7296         9.7296         9.7296         921.05371    
       136   0              499.81354      6106082.9      6106082.9      6106082.9      6106082.9      3.5951343e-11 -3.3138445e-10 -3.0890651e-10  9.73056        9.73056        9.73056        921.32638    
       137   0              498.77465      6100648.1      6100648.1      6100648.1      6100648.1      8.5350025e-11  1.9989972e-10 -2.4705208e-11  9.73152        9.73152        9.73152        921.59909    
       138   0              497.73648      6095217.7      6095217.7      6095217.7      6095217.7      1.3465007e-10 -2.0765064e-10 -1.9758319e-10  9.73248        9.73248        9.73248        921.87186    
       139   0              496.69903      6089791.6      6089791.6      6089791.6      6089791.6      3.5981098e-11 -2.4460099e-10 -1.4814355e-10  9.73344        9.73344        9.73344        922.14469    
       140   0              495.66229      6084369.9      6084369.9      6084369.9      6084369.9      6.0635578e-11 -5.9379918e-11 -9.8733148e-11  9.7344         9.7344         9.7344         922.41756    
       141   0              494.62628      6078952.5      6078952.5      6078952.5      6078952.5      1.0993483e-10 -9.6352288e-11 -2.7143584e-10  9.73536        9.73536        9.73536        922.6905     
       142   0              493.59098      6073539.5      6073539.5      6073539.5      6073539.5     -6.2901367e-11  1.4709331e-11 -2.0968384e-10  9.73632        9.73632        9.73632        922.96348    
       143   0              492.55641      6068130.8      6068130.8      6068130.8      6068130.8      3.5690017e-11  5.2028751e-10  1.7262974e-10  9.73728        9.73728        9.73728        923.23652    
       144   0              491.52255      6062726.5      6062726.5      6062726.5      6062726.5     -1.3646346e-11 -2.1946529e-10 -1.232705e-10   9.73824        9.73824        9.73824        923.50961    
       145   0              490.4894       6057326.5      6057326.5      6057326.5      6057326.5     -1.3664439e-11  2.4891294e-10 -1.2323405e-10  9.7392         9.7392         9.7392         923.78276    
       146   0              489.45698      6051930.9      6051930.9      6051930.9      6051930.9     -3.8335656e-11  1.4787812e-11 -8.6238328e-11  9.74016        9.74016        9.74016        924.05596    
       147   0              488.42527      6046539.6      6046539.6      6046539.6      6046539.6     -1.3693292e-11 -1.3298607e-10 -1.1084507e-10  9.74112        9.74112        9.74112        924.32922    
       148   0              487.39427      6041152.7      6041152.7      6041152.7      6041152.7      1.0946859e-10 -9.5985416e-11 -1.2312479e-10  9.74208        9.74208        9.74208        924.60252    
       149   0              486.364        6035770.1      6035770.1      6035770.1      6035770.1     -1.3681383e-10  1.2562596e-10  1.1077955e-10  9.74304        9.74304        9.74304        924.87589    
       150   0              485.33443      6030391.8      6030391.8      6030391.8      6030391.8      3.5623559e-11  1.4865875e-11 -1.5996762e-10  9.744          9.744          9.744          925.1493     
       151   0              484.30558      6025017.8      6025017.8      6025017.8      6025017.8      3.5612782e-11  1.2559941e-10  2.4603131e-10  9.74496        9.74496        9.74496        925.42277    
       152   0              483.27745      6019648.1      6019648.1      6019648.1      6019648.1      8.4774608e-11 -1.5726628e-10 -1.8446896e-10  9.74592        9.74592        9.74592        925.6963     
       153   0              482.25003      6014282.7      6014282.7      6014282.7      6014282.7      5.9979039e-11 -1.57196e-10   -2.8276883e-10  9.74688        9.74688        9.74688        925.96987    
       154   0              481.22332      6008921.6      6008921.6      6008921.6      6008921.6      1.5832165e-10  2.7234193e-11 -1.4748798e-10  9.74784        9.74784        9.74784        926.24351    
       155   0              480.19733      6003564.9      6003564.9      6003564.9      6003564.9     -6.2965445e-11 -1.0790747e-10 -1.9659255e-10  9.7488         9.7488         9.7488         926.51719    
       156   0              479.17205      5998212.4      5998212.4      5998212.4      5998212.4     -1.3830616e-11  1.1324944e-10  7.3700432e-11  9.74976        9.74976        9.74976        926.79093    
       157   0              478.14748      5992864.2      5992864.2      5992864.2      5992864.2      5.9830887e-11 -1.2007606e-10 -1.2279778e-10  9.75072        9.75072        9.75072        927.06473    
       158   0              477.12362      5987520.3      5987520.3      5987520.3      5987520.3      1.0688678e-11  1.5005844e-10 -3.6828454e-11  9.75168        9.75168        9.75168        927.33857    
       159   0              476.10048      5982180.7      5982180.7      5982180.7      5982180.7      5.9795205e-11 -2.0586546e-10 -2.0863295e-10  9.75264        9.75264        9.75264        927.61247    
       160   0              475.07805      5976845.4      5976845.4      5976845.4      5976845.4      5.9720131e-11  3.3405072e-10  3.6806709e-11  9.7536         9.7536         9.7536         927.88643    
       161   0              474.05632      5971514.4      5971514.4      5971514.4      5971514.4      1.0789436e-11  2.8131581e-12  8.5856968e-11  9.75456        9.75456        9.75456        928.16044    
       162   0              473.03531      5966187.6      5966187.6      5966187.6      5966187.6      1.0749013e-11 -1.3204232e-10 -2.9427985e-10  9.75552        9.75552        9.75552        928.4345     
       163   0              472.01501      5960865.2      5960865.2      5960865.2      5960865.2      1.0745929e-11  1.9898737e-10 -8.580629e-11   9.75648        9.75648        9.75648        928.70862    
       164   0              470.99542      5955547        5955547        5955547        5955547        1.8209949e-10  6.4153571e-11 -1.9607078e-10  9.75744        9.75744        9.75744        928.98279    
       165   0              469.97653      5950233.1      5950233.1      5950233.1      5950233.1     -3.8433989e-11 -9.3466382e-12 -6.1254037e-11  9.7584         9.7584         9.7584         929.25701    
       166   0              468.95836      5944923.4      5944923.4      5944923.4      5944923.4      3.4986621e-11  8.8657199e-11  0              9.75936        9.75936        9.75936        929.53129    
       167   0              467.94089      5939618        5939618        5939618        5939618        1.0469302e-11 -3.3781226e-11 -1.2243579e-10  9.76032        9.76032        9.76032        929.80563    
       168   0              466.92413      5934316.9      5934316.9      5934316.9      5934316.9      1.5732788e-10 -2.1507782e-11 -1.2239967e-11  9.76128        9.76128        9.76128        930.08001    
       169   0              465.90808      5929020        5929020        5929020        5929020        1.5728015e-10  1.6206739e-10  9.7890852e-11  9.76224        9.76224        9.76224        930.35445    
       170   0              464.89274      5923727.4      5923727.4      5923727.4      5923727.4      2.306495e-10   7.6413818e-11 -1.2232747e-10  9.7632         9.7632         9.7632         930.62895    
       171   0              463.8781       5918439.1      5918439.1      5918439.1      5918439.1      5.9296833e-11  2.4762269e-10  1.7120795e-10  9.76416        9.76416        9.76416        930.9035     
       172   0              462.86418      5913155        5913155        5913155        5913155        5.9433389e-11 -1.6809505e-10 -1.3448086e-10  9.76512        9.76512        9.76512        931.1781     
       173   0              461.85095      5907875.1      5907875.1      5907875.1      5907875.1     -1.3933549e-11 -1.1913437e-10 -2.8110435e-10  9.76608        9.76608        9.76608        931.45276    
       174   0              460.83843      5902599.5      5902599.5      5902599.5      5902599.5      8.379871e-11  -1.0685753e-10 -1.2218325e-10  9.76704        9.76704        9.76704        931.72747    
       175   0              459.82662      5897328.2      5897328.2      5897328.2      5897328.2      5.9131002e-11 -1.5566155e-10 -1.4657667e-10  9.768          9.768          9.768          932.00223    
       176   0              458.81551      5892061.1      5892061.1      5892061.1      5892061.1      5.9173334e-11  1.1305238e-10  6.105561e-11   9.76896        9.76896        9.76896        932.27705    
       177   0              457.80511      5886798.2      5886798.2      5886798.2      5886798.2      5.9057888e-11  3.9797245e-11  0              9.76992        9.76992        9.76992        932.55192    
       178   0              456.79541      5881539.5      5881539.5      5881539.5      5881539.5      3.4632604e-11  1.6184807e-10  3.6611774e-11  9.77088        9.77088        9.77088        932.82685    
       179   0              455.78642      5876285.1      5876285.1      5876285.1      5876285.1      5.900529e-11  -5.7782277e-11 -3.6600985e-11  9.77184        9.77184        9.77184        933.10183    
       180   0              454.77812      5871034.9      5871034.9      5871034.9      5871034.9      1.0183198e-11 -2.6508646e-10 -2.3173793e-10  9.7728         9.7728         9.7728         933.37687    
       181   0              453.77054      5865789        5865789        5865789        5865789        1.0159351e-11 -6.989486e-11  -1.7070396e-10  9.77376        9.77376        9.77376        933.65196    
       182   0              452.76365      5860547.2      5860547.2      5860547.2      5860547.2      3.4555782e-11 -1.6736743e-10  2.4379095e-11  9.77472        9.77472        9.77472        933.9271     
       183   0              451.75747      5855309.7      5855309.7      5855309.7      5855309.7      1.0295665e-11  1.9828378e-10  7.311574e-11   9.77568        9.77568        9.77568        934.2023     
       184   0              450.75198      5850076.3      5850076.3      5850076.3      5850076.3      1.0771315e-10 -8.8516809e-12 -1.9491788e-10  9.77664        9.77664        9.77664        934.47755    
       185   0              449.7472       5844847.2      5844847.2      5844847.2      5844847.2     -1.4124745e-11  5.2067993e-11  6.0893897e-11  9.7776         9.7776         9.7776         934.75285    
       186   0              448.74312      5839622.3      5839622.3      5839622.3      5839622.3     -3.8692077e-11  3.9900605e-11  4.8700771e-11  9.77856        9.77856        9.77856        935.02821    
       187   0              447.73974      5834401.5      5834401.5      5834401.5      5834401.5     -3.8679406e-11  8.8598417e-11 -1.0954447e-10  9.77952        9.77952        9.77952        935.30363    
       188   0              446.73706      5829185        5829185        5829185        5829185        5.8717614e-11 -2.0916781e-11 -1.2168024e-11  9.78048        9.78048        9.78048        935.57909    
       189   0              445.73508      5823972.6      5823972.6      5823972.6      5823972.6      1.0729979e-10  3.9934677e-11  4.8657766e-11  9.78144        9.78144        9.78144        935.85461    
       190   0              444.7338       5818764.4      5818764.4      5818764.4      5818764.4      5.8584237e-11  1.4939373e-10  0              9.7824         9.7824         9.7824         936.13019    
       191   0              443.73322      5813560.4      5813560.4      5813560.4      5813560.4      1.5578583e-10  1.3721553e-10 -8.5100967e-11  9.78336        9.78336        9.78336        936.40582    
       192   0              442.73334      5808360.6      5808360.6      5808360.6      5808360.6      9.8995976e-12  1.3719816e-10  1.4584444e-10  9.78432        9.78432        9.78432        936.6815     
       193   0              441.73416      5803164.9      5803164.9      5803164.9      5803164.9      5.8539068e-11  1.7363118e-10  1.0935114e-10  9.78528        9.78528        9.78528        936.95724    
       194   0              440.73567      5797973.5      5797973.5      5797973.5      5797973.5      3.4313737e-11  1.7360308e-10 -6.0732754e-11  9.78624        9.78624        9.78624        937.23303    
       195   0              439.73788      5792786.2      5792786.2      5792786.2      5792786.2      5.8570711e-11 -3.2855641e-11 -2.9143145e-10  9.7872         9.7872         9.7872         937.50888    
       196   0              438.74079      5787603        5787603        5787603        5787603        1.0711428e-10  1.3712864e-10  1.5781226e-10  9.78816        9.78816        9.78816        937.78478    
       197   0              437.7444       5782424.1      5782424.1      5782424.1      5782424.1     -1.448136e-11   7.6432067e-11  1.2135833e-11  9.78912        9.78912        9.78912        938.06073    
       198   0              436.7487       5777249.3      5777249.3      5777249.3      5777249.3     -1.449768e-11   1.1282928e-10  1.334549e-10   9.79008        9.79008        9.79008        938.33674    
       199   0              435.7537       5772078.6      5772078.6      5772078.6      5772078.6      5.8323702e-11  5.2175515e-11 -2.3044521e-10  9.79104        9.79104        9.79104        938.6128     
       200   0              434.75939      5766912.1      5766912.1      5766912.1      5766912.1      5.8203575e-11 -1.5394413e-10 -3.7587898e-10  9.792          9.792          9.792          938.88892    
       201   0              433.76578      5761749.8      5761749.8      5761749.8      5761749.8      5.8168263e-11  7.6433679e-11 -2.4243126e-11  9.79296        9.79296        9.79296        939.16509    
       202   0              432.77287      5756591.6      5756591.6      5756591.6      5756591.6      1.3086218e-10 -1.6592594e-10 -3.3930397e-10  9.79392        9.79392        9.79392        939.44132    
       203   0              431.78065      5751437.6      5751437.6      5751437.6      5751437.6      3.3888883e-11  8.8548826e-11 -9.6915488e-11  9.79488        9.79488        9.79488        939.7176     
       204   0              430.78912      5746287.7      5746287.7      5746287.7      5746287.7      1.792127e-10  -2.1422629e-10 -4.1176974e-10  9.79584        9.79584        9.79584        939.99393    
       205   0              429.79828      5741141.9      5741141.9      5741141.9      5741141.9     -8.7070232e-11  1.2486428e-10 -9.6858518e-11  9.7968         9.7968         9.7968         940.27032    
       206   0              428.80814      5736000.3      5736000.3      5736000.3      5736000.3      5.8182961e-11  4.0124044e-11 -1.8155634e-10  9.79776        9.79776        9.79776        940.54676    
       207   0              427.81869      5730862.9      5730862.9      5730862.9      5730862.9     -1.4454626e-11  7.6435583e-11  2.4200398e-11  9.79872        9.79872        9.79872        940.82325    
       208   0              426.82994      5725729.5      5725729.5      5725729.5      5725729.5      9.5309993e-12  2.5788549e-10  1.2096643e-10  9.79968        9.79968        9.79968        941.0998     
       209   0              425.84188      5720600.3      5720600.3      5720600.3      5720600.3      1.0627587e-10  3.877573e-12   0              9.80064        9.80064        9.80064        941.37641    
       210   0              424.85451      5715475.2      5715475.2      5715475.2      5715475.2      3.3731677e-11 -2.0279959e-11 -3.022384e-10   9.8016         9.8016         9.8016         941.65307    
       211   0              423.86783      5710354.3      5710354.3      5710354.3      5710354.3      8.1981944e-11  2.8092578e-11 -1.6920378e-10  9.80256        9.80256        9.80256        941.92978    
       212   0              422.88184      5705237.5      5705237.5      5705237.5      5705237.5      1.544344e-10  -3.2305209e-11 -1.3290678e-10  9.80352        9.80352        9.80352        942.20655    
       213   0              421.89654      5700124.7      5700124.7      5700124.7      5700124.7      9.4238053e-12  2.4554127e-10  7.2473313e-11  9.80448        9.80448        9.80448        942.48337    
       214   0              420.91193      5695016.1      5695016.1      5695016.1      5695016.1      5.7703795e-11 -1.1676839e-10 -3.1395879e-10  9.80544        9.80544        9.80544        942.76024    
       215   0              419.92801      5689911.7      5689911.7      5689911.7      5689911.7      1.3009958e-10 -2.013717e-11   7.2430753e-11  9.8064         9.8064         9.8064         943.03717    
       216   0              418.94478      5684811.3      5684811.3      5684811.3      5684811.3      1.0614997e-10  2.2125626e-10  1.9309196e-10  9.80736        9.80736        9.80736        943.31416    
       217   0              417.96224      5679715        5679715        5679715        5679715        3.3645122e-11  1.126315e-10   6.0323521e-11  9.80832        9.80832        9.80832        943.59119    
       218   0              416.98039      5674622.8      5674622.8      5674622.8      5674622.8      1.5422831e-10 -2.0051831e-11 -2.7740674e-10  9.80928        9.80928        9.80928        943.86829    
       219   0              415.99923      5669534.7      5669534.7      5669534.7      5669534.7      1.0573461e-10 -7.9658161e-12  4.8230488e-11  9.81024        9.81024        9.81024        944.14543    
       220   0              415.01875      5664450.7      5664450.7      5664450.7      5664450.7      1.0568557e-10 -2.0080631e-10 -2.2902758e-10  9.8112         9.8112         9.8112         944.42263    
       221   0              414.03897      5659370.8      5659370.8      5659370.8      5659370.8      3.3354534e-11 -4.4067823e-11 -3.2536472e-10  9.81216        9.81216        9.81216        944.69989    
       222   0              413.05987      5654294.9      5654294.9      5654294.9      5654294.9      1.0565325e-10 -5.6079454e-11 -2.0479915e-10  9.81312        9.81312        9.81312        944.9772     
       223   0              412.08145      5649223.2      5649223.2      5649223.2      5649223.2      1.777972e-10   2.2095933e-10  2.2882601e-10  9.81408        9.81408        9.81408        945.25456    
       224   0              411.10372      5644155.5      5644155.5      5644155.5      5644155.5      5.7327109e-11  1.6071722e-10 -1.6855917e-10  9.81504        9.81504        9.81504        945.53198    
       225   0              410.12668      5639091.8      5639091.8      5639091.8      5639091.8      3.3219007e-11 -1.1614493e-10 -1.2036408e-10  9.816          9.816          9.816          945.80945    
       226   0              409.15033      5634032.3      5634032.3      5634032.3      5634032.3      8.1344412e-11 -1.2812137e-10 -1.2032878e-11  9.81696        9.81696        9.81696        946.08698    
       227   0              408.17466      5628976.8      5628976.8      5628976.8      5628976.8      1.0561131e-10  1.6064293e-10  1.0826413e-10  9.81792        9.81792        9.81792        946.36456    
       228   0              407.19967      5623925.4      5623925.4      5623925.4      5623925.4      1.5360032e-10 -1.9769157e-11 -1.202582e-11   9.81888        9.81888        9.81888        946.64219    
       229   0              406.22537      5618878        5618878        5618878        5618878        5.7333927e-11 -3.1763333e-11 -9.6178348e-11  9.81984        9.81984        9.81984        946.91988    
       230   0              405.25176      5613834.7      5613834.7      5613834.7      5613834.7      9.0400033e-12 -5.5769254e-11 -3.6056305e-11  9.8208         9.8208         9.8208         947.19762    
       231   0              404.27882      5608795.4      5608795.4      5608795.4      5608795.4      8.1087968e-11 -1.037916e-10  -1.6821342e-10  9.82176        9.82176        9.82176        947.47542    
       232   0              403.30657      5603760.2      5603760.2      5603760.2      5603760.2     -1.5048037e-11  1.6051896e-10 -4.8046887e-11  9.82272        9.82272        9.82272        947.75327    
       233   0              402.33501      5598729.1      5598729.1      5598729.1      5598729.1     -3.9009074e-11 -5.5653462e-11  0              9.82368        9.82368        9.82368        948.03118    
       234   0              401.36412      5593702        5593702        5593702        5593702        2.0103139e-10  1.1245061e-10 -7.2028086e-11  9.82464        9.82464        9.82464        948.30914    
       235   0              400.39392      5588678.9      5588678.9      5588678.9      5588678.9      3.2936718e-11 -1.7558806e-10 -2.6402558e-10  9.8256         9.8256         9.8256         948.58716    
       236   0              399.4244       5583659.9      5583659.9      5583659.9      5583659.9      1.048724e-10  -6.7535594e-11 -9.5981165e-11  9.82656        9.82656        9.82656        948.86523    
       237   0              398.45556      5578644.9      5578644.9      5578644.9      5578644.9      1.5282321e-10 -2.3541146e-10 -2.7586499e-10  9.82752        9.82752        9.82752        949.14335    
       238   0              397.4874       5573634        5573634        5573634        5573634        1.7692768e-10  4.4919787e-12 -7.1943695e-11  9.82848        9.82848        9.82848        949.42153    
       239   0              396.51993      5568627.1      5568627.1      5568627.1      5568627.1      1.5286154e-10 -1.9461427e-11 -1.1987103e-11  9.82944        9.82944        9.82944        949.69976    
       240   0              395.55313      5563624.2      5563624.2      5563624.2      5563624.2      8.0921488e-11 -1.3926952e-10 -1.3181951e-10  9.8304         9.8304         9.8304         949.97805    
       241   0              394.58701      5558625.3      5558625.3      5558625.3      5558625.3      1.2858733e-10  1.6534442e-11  3.5940244e-11  9.83136        9.83136        9.83136        950.25639    
       242   0              393.62158      5553630.5      5553630.5      5553630.5      5553630.5      1.7643767e-10 -6.7284337e-11 -5.9882862e-11  9.83232        9.83232        9.83232        950.53478    
       243   0              392.65682      5548639.7      5548639.7      5548639.7      5548639.7      8.0582626e-11  2.8541941e-11 -1.7959598e-10  9.83328        9.83328        9.83328        950.81323    
       244   0              391.69274      5543652.9      5543652.9      5543652.9      5543652.9      3.2735022e-11  4.052515e-11  -2.3939118e-11  9.83424        9.83424        9.83424        951.09174    
       245   0              390.72934      5538670.1      5538670.1      5538670.1      5538670.1      1.0445491e-10 -3.0648027e-10 -2.9915136e-10  9.8352         9.8352         9.8352         951.3703     
       246   0              389.76662      5533691.4      5533691.4      5533691.4      5533691.4      1.2830733e-10  5.2507992e-11 -4.7850205e-11  9.83616        9.83616        9.83616        951.64891    
       247   0              388.80457      5528716.6      5528716.6      5528716.6      5528716.6      5.6498387e-11 -3.7801118e-10 -1.9134479e-10  9.83712        9.83712        9.83712        951.92758    
       248   0              387.8432       5523745.9      5523745.9      5523745.9      5523745.9      1.0428473e-10 -6.7034308e-11 -1.4346658e-10  9.83808        9.83808        9.83808        952.2063     
       249   0              386.88251      5518779.2      5518779.2      5518779.2      5518779.2      8.8128659e-12 -6.6992751e-11 -3.5856148e-10  9.83904        9.83904        9.83904        952.48507    
       250   0              385.9225       5513816.4      5513816.4      5513816.4      5513816.4      8.8650671e-12 -1.2669398e-10 -1.3143407e-10  9.84           9.84           9.84           952.7639     
       251   0              384.96316      5508857.7      5508857.7      5508857.7      5508857.7      3.2661987e-11 -6.6909721e-11 -1.5528572e-10  9.84096        9.84096        9.84096        953.04279    
       252   0              384.0045       5503902.9      5503902.9      5503902.9      5503902.9      1.0406635e-10 -3.1043581e-11  1.194156e-11   9.84192        9.84192        9.84192        953.32173    
       253   0              383.04651      5498952.1      5498952.1      5498952.1      5498952.1      3.2413065e-11  1.6739629e-11  0              9.84288        9.84288        9.84288        953.60072    
       254   0              382.0892       5494005.3      5494005.3      5494005.3      5494005.3      8.5174212e-12  5.2560302e-11 -3.5803722e-11  9.84384        9.84384        9.84384        953.87977    
       255   0              381.13256      5489062.5      5489062.5      5489062.5      5489062.5     -1.5292577e-11 -9.0606239e-11 -1.0737975e-10  9.8448         9.8448         9.8448         954.15887    
       256   0              380.1766       5484123.6      5484123.6      5484123.6      5484123.6      5.6161017e-11  1.5992154e-10 -1.1927593e-11  9.84576        9.84576        9.84576        954.43803    
       257   0              379.22131      5479188.8      5479188.8      5479188.8      5479188.8      7.9999251e-11 -1.6205429e-10 -1.1924105e-10  9.84672        9.84672        9.84672        954.71724    
       258   0              378.2667       5474257.8      5474257.8      5474257.8      5474257.8     -1.5431763e-11  2.433159e-10   8.3444327e-11  9.84768        9.84768        9.84768        954.99651    
       259   0              377.31275      5469330.9      5469330.9      5469330.9      5469330.9      1.5139396e-10 -2.6917019e-10 -1.5492272e-10  9.84864        9.84864        9.84864        955.27583    
       260   0              376.35949      5464407.9      5464407.9      5464407.9      5464407.9      1.753826e-10   1.1216699e-10  1.5487743e-10  9.8496         9.8496         9.8496         955.5552     
       261   0              375.40689      5459488.9      5459488.9      5459488.9      5459488.9      3.2440857e-11 -1.3795755e-10 -4.7640662e-11  9.85056        9.85056        9.85056        955.83463    
       262   0              374.45496      5454573.8      5454573.8      5454573.8      5454573.8      8.5509847e-12 -1.617089e-10  -1.5478689e-10  9.85152        9.85152        9.85152        956.11412    
       263   0              373.50371      5449662.7      5449662.7      5449662.7      5449662.7     -1.5524446e-11 -3.2828481e-10 -1.5474165e-10  9.85248        9.85248        9.85248        956.39365    
       264   0              372.55313      5444755.5      5444755.5      5444755.5      5444755.5      5.591186e-11  -1.2587187e-10 -1.427967e-10   9.85344        9.85344        9.85344        956.67325    
       265   0              371.60322      5439852.3      5439852.3      5439852.3      5439852.3      1.03437e-10   -1.6150219e-10 -4.7584991e-11  9.8544         9.8544         9.8544         956.95289    
       266   0              370.65398      5434953        5434953        5434953        5434953        5.5816642e-11  5.2636526e-11  7.135663e-11   9.85536        9.85536        9.85536        957.2326     
       267   0              369.70541      5430057.6      5430057.6      5430057.6      5430057.6      3.2079176e-11 -1.1380741e-10  1.1889297e-11  9.85632        9.85632        9.85632        957.51235    
       268   0              368.75751      5425166.2      5425166.2      5425166.2      5425166.2      5.5774332e-11 -8.9980922e-11  0              9.85728        9.85728        9.85728        957.79216    
       269   0              367.81027      5420278.8      5420278.8      5420278.8      5420278.8      5.5739646e-11 -1.8499189e-10 -1.6635292e-10  9.85824        9.85824        9.85824        958.07203    
       270   0              366.86371      5415395.3      5415395.3      5415395.3      5415395.3      5.5679634e-11  1.0017685e-10  1.1878881e-11  9.8592         9.8592         9.8592         958.35195    
       271   0              365.91782      5410515.7      5410515.7      5410515.7      5410515.7      8.3467827e-12  1.7041248e-11  9.5003294e-11  9.86016        9.86016        9.86016        958.63192    
       272   0              364.97259      5405640        5405640        5405640        5405640        7.9558087e-11 -3.0429987e-11  3.5615831e-11  9.86112        9.86112        9.86112        958.91195    
       273   0              364.02804      5400768.3      5400768.3      5400768.3      5400768.3      1.5072885e-10 -1.2534741e-10 -1.4242173e-10  9.86208        9.86208        9.86208        959.19203    
       274   0              363.08415      5395900.5      5395900.5      5395900.5      5395900.5      1.0300411e-10 -3.036922e-11   3.5595036e-11  9.86304        9.86304        9.86304        959.47217    
       275   0              362.14092      5391036.6      5391036.6      5391036.6      5391036.6      8.0627616e-12  7.6415039e-11 -1.1861548e-11  9.864          9.864          9.864          959.75236    
       276   0              361.19837      5386176.6      5386176.6      5386176.6      5386176.6      3.1760324e-11 -1.370314e-10  -5.9290427e-11  9.86496        9.86496        9.86496        960.03261    
       277   0              360.25648      5381320.5      5381320.5      5381320.5      5381320.5      1.7398719e-10  6.4558639e-11  5.9273121e-11  9.86592        9.86592        9.86592        960.31291    
       278   0              359.31526      5376468.4      5376468.4      5376468.4      5376468.4      8.0872603e-12  6.4561208e-11  5.9255822e-11  9.86688        9.86688        9.86688        960.59327    
       279   0              358.3747       5371620.2      5371620.2      5371620.2      5371620.2     -6.3129423e-11  6.456376e-11  -3.5543118e-11  9.86784        9.86784        9.86784        960.87368    
       280   0              357.43481      5366775.9      5366775.9      5366775.9      5366775.9      1.7378252e-10 -2.3153993e-10 -4.382372e-10   9.8688         9.8688         9.8688         961.15414    
       281   0              356.49558      5361935.4      5361935.4      5361935.4      5361935.4      7.8967954e-11 -2.3145101e-10 -2.2497506e-10  9.86976        9.86976        9.86976        961.43466    
       282   0              355.55702      5357098.9      5357098.9      5357098.9      5357098.9     -6.2899463e-11  1.7110735e-10  7.102403e-11   9.87072        9.87072        9.87072        961.71524    
       283   0              354.61912      5352266.3      5352266.3      5352266.3      5352266.3      8.0846788e-12  1.1190932e-10  0              9.87168        9.87168        9.87168        961.99587    
       284   0              353.68189      5347437.6      5347437.6      5347437.6      5347437.6      8.0906524e-12 -5.372809e-11   1.8928694e-10  9.87264        9.87264        9.87264        962.27655    
       285   0              352.74531      5342612.8      5342612.8      5342612.8      5342612.8      1.2610591e-10  5.4437714e-12  3.5480949e-11  9.8736         9.8736         9.8736         962.55729    
       286   0              351.80941      5337791.8      5337791.8      5337791.8      5337791.8      1.9698629e-10  1.0005171e-10  1.6552948e-10  9.87456        9.87456        9.87456        962.83808    
       287   0              350.87416      5332974.7      5332974.7      5332974.7      5332974.7      7.8023141e-12  1.5914422e-10  1.5366112e-10  9.87552        9.87552        9.87552        963.11893    
       288   0              349.93958      5328161.5      5328161.5      5328161.5      5328161.5      5.5037758e-11  1.7319368e-11 -3.5449919e-11  9.87648        9.87648        9.87648        963.39983    
       289   0              349.00566      5323352.2      5323352.2      5323352.2      5323352.2      1.259476e-10  -8.8983229e-11 -9.4505557e-11  9.87744        9.87744        9.87744        963.68079    
       290   0              348.0724       5318546.7      5318546.7      5318546.7      5318546.7      5.4975045e-11 -1.1255559e-10  3.5429253e-11  9.8784         9.8784         9.8784         963.9618     
       291   0              347.1398       5313745.1      5313745.1      5313745.1      5313745.1      3.1328227e-11 -1.2430792e-10 -3.0696402e-10  9.87936        9.87936        9.87936        964.24286    
       292   0              346.20786      5308947.3      5308947.3      5308947.3      5308947.3      1.0212452e-10  2.4163834e-10 -1.2983154e-10  9.88032        9.88032        9.88032        964.52398    
       293   0              345.27659      5304153.4      5304153.4      5304153.4      5304153.4      7.8966478e-12 -1.0059434e-10 -1.6519199e-10  9.88128        9.88128        9.88128        964.80516    
       294   0              344.34597      5299363.4      5299363.4      5299363.4      5299363.4      3.1462285e-11  5.2803956e-11 -7.0775936e-11  9.88224        9.88224        9.88224        965.08639    
       295   0              343.41601      5294577.2      5294577.2      5294577.2      5294577.2      1.9659753e-10 -5.3323296e-11  5.8962761e-11  9.8832         9.8832         9.8832         965.36767    
       296   0              342.48672      5289794.9      5289794.9      5289794.9      5289794.9      5.4752349e-11  1.2355006e-10  5.8945583e-11  9.88416        9.88416        9.88416        965.64901    
       297   0              341.55808      5285016.4      5285016.4      5285016.4      5285016.4      7.8304082e-11  4.103536e-11  -4.7142729e-11  9.88512        9.88512        9.88512        965.93041    
       298   0              340.6301       5280241.8      5280241.8      5280241.8      5280241.8      3.1135647e-11 -1.3568928e-10 -2.2386273e-10  9.88608        9.88608        9.88608        966.21185    
       299   0              339.70278      5275471        5275471        5275471        5275471        7.8214754e-11  1.1172644e-10 -9.4230539e-11  9.88704        9.88704        9.88704        966.49336    
       300   0              338.77612      5270704.1      5270704.1      5270704.1      5270704.1      1.4881072e-10  5.7364216e-12  1.1775387e-10  9.888          9.888          9.888          966.77492    
       301   0              337.85011      5265941        5265941        5265941        5265941       -3.9523442e-11  1.7527752e-11  0              9.88896        9.88896        9.88896        967.05653    
       302   0              336.92476      5261181.7      5261181.7      5261181.7      5261181.7      3.1014083e-11 -1.2367879e-10 -1.8829648e-10  9.88992        9.88992        9.88992        967.33819    
       303   0              336.00007      5256426.3      5256426.3      5256426.3      5256426.3      7.8041397e-11 -2.1774264e-10 -2.8236249e-10  9.89088        9.89088        9.89088        967.61992    
       304   0              335.07604      5251674.7      5251674.7      5251674.7      5251674.7     -3.939181e-11   1.4695373e-10 -5.8808394e-11  9.89184        9.89184        9.89184        967.90169    
       305   0              334.15266      5246926.9      5246926.9      5246926.9      5246926.9     -1.5881331e-11 -1.1174975e-10 -1.0582429e-10  9.8928         9.8928         9.8928         968.18352    
       306   0              333.22993      5242182.9      5242182.9      5242182.9      5242182.9      1.2516473e-10  1.5866486e-10  3.5264498e-11  9.89376        9.89376        9.89376        968.46541    
       307   0              332.30787      5237442.8      5237442.8      5237442.8      5237442.8      5.4446118e-11 -1.116429e-10  -9.4011292e-11  9.89472        9.89472        9.89472        968.74735    
       308   0              331.38645      5232706.5      5232706.5      5232706.5      5232706.5      7.3588924e-12  6.4630346e-11 -4.6991967e-11  9.89568        9.89568        9.89568        969.02934    
       309   0              330.4657       5227974        5227974        5227974        5227974       -1.6196561e-11 -7.6302523e-11 -2.3489147e-11  9.89664        9.89664        9.89664        969.31139    
       310   0              329.54559      5223245.4      5223245.4      5223245.4      5223245.4      1.7168934e-10 -1.7018874e-10 -3.5223469e-10  9.8976         9.8976         9.8976         969.5935     
       311   0              328.62614      5218520.5      5218520.5      5218520.5      5218520.5      5.4244056e-11 -1.701184e-10  -1.7606611e-10  9.89856        9.89856        9.89856        969.87566    
       312   0              327.70735      5213799.5      5213799.5      5213799.5      5213799.5      1.4817758e-10  2.4065329e-10  2.2295219e-10  9.89952        9.89952        9.89952        970.15787    
       313   0              326.7892       5209082.3      5209082.3      5209082.3      5209082.3      7.2544695e-12 -9.9592405e-11 -1.4077095e-10  9.90048        9.90048        9.90048        970.44014    
       314   0              325.87171      5204368.8      5204368.8      5204368.8      5204368.8      7.4293743e-12 -3.2236519e-10 -2.3455002e-10  9.90144        9.90144        9.90144        970.72246    
       315   0              324.95488      5199659.2      5199659.2      5199659.2      5199659.2      1.2467947e-10 -8.776889e-11  -8.2068634e-11  9.9024         9.9024         9.9024         971.00484    
       316   0              324.03869      5194953.4      5194953.4      5194953.4      5194953.4      1.4801716e-10 -5.6778749e-12 -1.1720681e-11  9.90336        9.90336        9.90336        971.28728    
       317   0              323.12316      5190251.3      5190251.3      5190251.3      5190251.3      3.0597084e-11  6.0617667e-12 -1.1717274e-11  9.90432        9.90432        9.90432        971.56976    
       318   0              322.20827      5185553.1      5185553.1      5185553.1      5185553.1      7.2208604e-12  1.1150549e-10 -1.1713867e-11  9.90528        9.90528        9.90528        971.85231    
       319   0              321.29404      5180858.6      5180858.6      5180858.6      5180858.6      3.0550779e-11  1.3491468e-10  3.5131386e-11  9.90624        9.90624        9.90624        972.1349     
       320   0              320.38046      5176167.9      5176167.9      5176167.9      5176167.9      7.7339709e-11  6.4653766e-11  1.8731293e-10  9.9072         9.9072         9.9072         972.41756    
       321   0              319.46753      5171481        5171481        5171481        5171481        1.0072816e-10 -2.981577e-10  -3.5110966e-11  9.90816        9.90816        9.90816        972.70026    
       322   0              318.55525      5166797.9      5166797.9      5166797.9      5166797.9      5.3866472e-11 -1.2254661e-10 -1.0530229e-10  9.90912        9.90912        9.90912        972.98302    
       323   0              317.64362      5162118.5      5162118.5      5162118.5      5162118.5      7.7283727e-11 -1.8097467e-10 -2.5733079e-10  9.91008        9.91008        9.91008        973.26584    
       324   0              316.73264      5157442.9      5157442.9      5157442.9      5157442.9      1.473617e-10  -8.7353854e-11 -2.4556257e-10  9.91104        9.91104        9.91104        973.54871    
       325   0              315.82231      5152771.1      5152771.1      5152771.1      5152771.1      7.7405182e-11  8.804297e-11  -1.402807e-10   9.912          9.912          9.912          973.83164    
       326   0              314.91262      5148103        5148103        5148103        5148103        1.0070251e-10 -2.1581528e-10 -2.6879324e-10  9.91296        9.91296        9.91296        974.11462    
       327   0              314.00358      5143438.6      5143438.6      5143438.6      5143438.6     -6.2902947e-11  1.7933298e-11  1.4019921e-10  9.91392        9.91392        9.91392        974.39766    
       328   0              313.0952       5138778.1      5138778.1      5138778.1      5138778.1      1.2373406e-10  8.8027853e-11  9.3438996e-11  9.91488        9.91488        9.91488        974.68075    
       329   0              312.18745      5134121.2      5134121.2      5134121.2      5134121.2      1.2373761e-10 -7.544797e-11   4.670593e-11   9.91584        9.91584        9.91584        974.96389    
       330   0              311.28036      5129468.2      5129468.2      5129468.2      5129468.2      6.8977397e-12 -4.0386299e-11 -3.5019275e-11  9.9168         9.9168         9.9168         975.24709    
       331   0              310.37391      5124818.9      5124818.9      5124818.9      5124818.9      1.0025708e-10 -5.3450005e-12  3.5009107e-11  9.91776        9.91776        9.91776        975.53035    
       332   0              309.46811      5120173.3      5120173.3      5120173.3      5120173.3     -1.0978874e-10 -1.686514e-10  -1.633284e-10   9.91872        9.91872        9.91872        975.81366    
       333   0              308.56296      5115531.5      5115531.5      5115531.5      5115531.5     -1.6493039e-11  6.4676543e-11 -3.4988782e-11  9.91968        9.91968        9.91968        976.09702    
       334   0              307.65845      5110893.4      5110893.4      5110893.4      5110893.4      2.1669727e-10 -2.8598154e-11  1.0493588e-10  9.92064        9.92064        9.92064        976.38044    
       335   0              306.75458      5106259        5106259        5106259        5106259        7.6825008e-11 -1.4513104e-10 -2.0981084e-10  9.9216         9.9216         9.9216         976.66391    
       336   0              305.85136      5101628.4      5101628.4      5101628.4      5101628.4      5.3625893e-11  1.5790361e-10  1.1652775e-10  9.92256        9.92256        9.92256        976.94744    
       337   0              304.94879      5097001.5      5097001.5      5097001.5      5097001.5      1.0019036e-10  6.4360322e-12 -1.863903e-10   9.92352        9.92352        9.92352        977.23103    
       338   0              304.04686      5092378.4      5092378.4      5092378.4      5092378.4      5.3525096e-11 -1.1000562e-10  1.0481412e-10  9.92448        9.92448        9.92448        977.51467    
       339   0              303.14557      5087758.9      5087758.9      5087758.9      5087758.9      1.2314349e-10  5.3043526e-11 -2.3285269e-11  9.92544        9.92544        9.92544        977.79836    
       340   0              302.24492      5083143.2      5083143.2      5083143.2      5083143.2     -1.6514263e-11 -4.5907885e-10 -4.6557027e-10  9.9264         9.9264         9.9264         978.08211    
       341   0              301.34492      5078531.3      5078531.3      5078531.3      5078531.3      7.656833e-11  -1.9130016e-10 -1.7453821e-10  9.92736        9.92736        9.92736        978.36591    
       342   0              300.44556      5073923        5073923        5073923        5073923        7.6433216e-11 -2.8369327e-11 -1.1632505e-11  9.92832        9.92832        9.92832        978.64977    
       343   0              299.54685      5069318.5      5069318.5      5069318.5      5069318.5      1.2291653e-10  6.5465533e-12 -5.8145658e-11  9.92928        9.92928        9.92928        978.93369    
       344   0              298.64878      5064717.6      5064717.6      5064717.6      5064717.6     -6.3125486e-11 -5.1563894e-11 -1.0463183e-10  9.93024        9.93024        9.93024        979.21765    
       345   0              297.75134      5060120.5      5060120.5      5060120.5      5060120.5      1.2282794e-10 -5.1528723e-11 -4.6489553e-11  9.9312         9.9312         9.9312         979.50168    
       346   0              296.85455      5055527.1      5055527.1      5055527.1      5055527.1      1.2285511e-10 -1.3282671e-10 -2.0914233e-10  9.93216        9.93216        9.93216        979.78576    
       347   0              295.9584       5050937.4      5050937.4      5050937.4      5050937.4      1.4616774e-10 -3.5346536e-10 -1.393878e-10   9.93312        9.93312        9.93312        980.06989    
       348   0              295.06289      5046351.4      5046351.4      5046351.4      5046351.4      6.7684329e-12 -1.9077076e-10 -1.7418424e-10  9.93408        9.93408        9.93408        980.35408    
       349   0              294.16802      5041769.2      5041769.2      5041769.2      5041769.2      5.3177711e-11  1.1113652e-10  4.6435667e-11  9.93504        9.93504        9.93504        980.63832    
       350   0              293.27379      5037190.6      5037190.6      5037190.6      5037190.6      1.6898733e-10 -7.4564389e-11 -1.0444997e-10  9.936          9.936          9.936          980.92262    
       351   0              292.3802       5032615.7      5032615.7      5032615.7      5032615.7      2.9665396e-11  1.1111237e-10 -5.8010945e-11  9.93696        9.93696        9.93696        981.20697    
       352   0              291.48725      5028044.5      5028044.5      5028044.5      5028044.5      9.932215e-11  -1.5567275e-10 -2.2037771e-10  9.93792        9.93792        9.93792        981.49138    
       353   0              290.59494      5023477        5023477        5023477        5023477       -3.9968558e-11 -1.3241662e-10 -3.1307759e-10  9.93888        9.93888        9.93888        981.77584    
       354   0              289.70327      5018913.1      5018913.1      5018913.1      5018913.1      5.2785718e-11 -3.9621337e-11 -1.9706582e-10  9.93984        9.93984        9.93984        982.06036    
       355   0              288.81223      5014353        5014353        5014353        5014353        1.4544896e-10 -1.4388855e-10 -2.2018623e-10  9.9408         9.9408         9.9408         982.34493    
       356   0              287.92183      5009796.5      5009796.5      5009796.5      5009796.5      1.4541495e-10 -7.4314481e-11 -2.5487863e-10  9.94176        9.94176        9.94176        982.62956    
       357   0              287.03207      5005243.6      5005243.6      5005243.6      5005243.6      2.9587762e-11 -2.9433164e-10 -3.0113295e-10  9.94272        9.94272        9.94272        982.91424    
       358   0              286.14295      5000694.5      5000694.5      5000694.5      5000694.5      5.2884946e-11 -3.9495381e-11 -9.2629459e-11  9.94368        9.94368        9.94368        983.19898    
[...]
       961   0             -524.15441      1858974.4      1772354.9      1232268.7      2572299.6      221198.5       298465.08     -59757.974      10.08          10.08          10.08          1024.1925    
       962   0             -524.23567      1858330.8      1254823.6      1411061.7      2909107.1      104752.36      270999.76     -331806.49      10.08          10.08          10.08          1024.1925    
       963   0             -524.34005      1858052.5      1773171.5      1231041.4      2569944.8      221448.4       298499.05     -59820.071      10.08          10.08          10.08          1024.1925    
       964   0             -524.42099      1857410        1254867.4      1409453.9      2907908.7      104525.08      271062.15     -332284.84      10.08          10.08          10.08          1024.1925    
       965   0             -524.52539      1857129.4      1773999.1      1229813        2567576.2      221701.22      298534.55     -59878.396      10.08          10.08          10.08          1024.1925    
       966   0             -524.60602      1856487.9      1254906        1407836.9      2906720.7      104299.52      271128.57     -332760.17      10.08          10.08          10.08          1024.1925    
       967   0             -524.71042      1856205        1774837.4      1228583.7      2565193.8      221956.84      298571.44     -59932.927      10.08          10.08          10.08          1024.1925    
       968   0             -524.79076      1855564.3      1254939        1406211.5      2905542.3      104075.62      271198.66     -333232.63      10.08          10.08          10.08          1024.1925    
       969   0             -524.89516      1855279.1      1775685.8      1227353.9      2562797.6      222215.17      298609.55     -59983.626      10.08          10.08          10.08          1024.1925    
       970   0             -524.97521      1854639.1      1254966.2      1404578.7      2904372.5      103853.3       271272.04     -333702.36      10.08          10.08          10.08          1024.1925    
       971   0             -525.07961      1854351.6      1776543.6      1226123.6      2560387.7      222476.11      298648.72     -60030.44       10.08          10.08          10.08          1024.1925    
       972   0             -525.15944      1853712.2      1255001.3      1402937.5      2903197.7      103637.56      271348.29     -334159.97      10.08          10.08          10.08          1024.1925    
       973   0             -525.26378      1853422.6      1777409.1      1224889.9      2557968.8      222738.81      298689.95     -60072.648      10.08          10.08          10.08          1024.1925    
       974   0             -525.34345      1852783.2      1255047.8      1401290.8      2902010.9      103429.86      271426.23     -334603.8       10.08          10.08          10.08          1024.1925    
       975   0             -525.44767      1852491.9      1778280.7      1223651.3      2555543.7      223002.98      298733.59     -60109.714      10.08          10.08          10.08          1024.1925    
       976   0             -525.5272       1851852.4      1255089.6      1399642.3      2900825.3      103223.88      271505.46     -335045.58      10.08          10.08          10.08          1024.1925    
       977   0             -525.63129      1851559.4      1779158.8      1222412.7      2553106.7      223269.8       298777.55     -60142.411      10.08          10.08          10.08          1024.1925    
       978   0             -525.7107       1850919.8      1255125.8      1397989.3      2899644.3      103018.09      271587.15     -335485.81      10.08          10.08          10.08          1024.1925    
       979   0             -525.81465      1850625.1      1780042.5      1221177.8      2550655.1      223539.83      298820.25     -60171.508      10.08          10.08          10.08          1024.1925    
       980   0             -525.89394      1849985.3      1255156.4      1396330.6      2898468.8      102811.77      271671.72     -335924.52      10.08          10.08          10.08          1024.1925    
       981   0             -525.99774      1849689        1780931        1219948.2      2548187.6      223813.23      298860.95     -60197.234      10.08          10.08          10.08          1024.1925    
       982   0             -526.07693      1849048.8      1255180.9      1394667.4      2897298.2      102604.95      271758.78     -336361.65      10.08          10.08          10.08          1024.1925    
       983   0             -526.18058      1848750.9      1781824.1      1218723.8      2545704.7      224089.8       298899.75     -60219.307      10.08          10.08          10.08          1024.1925    
       984   0             -526.25967      1848110.4      1255198.6      1393002.6      2896129.8      102397.92      271847        -336797.72      10.08          10.08          10.08          1024.1925    
       985   0             -526.36317      1847810.8      1782721        1217504.3      2543207        224368.5       298936.83     -60238.262      10.08          10.08          10.08          1024.1925    
       986   0             -526.44218      1847169.9      1255208.9      1391340.7      2894959.9      102190.81      271934.55     -337234         10.08          10.08          10.08          1024.1925    
       987   0             -526.54552      1846868.7      1783621.2      1216289.2      2540695.6      224648.31      298972.56     -60254.332      10.08          10.08          10.08          1024.1925    
       988   0             -526.62446      1846227.3      1255212.3      1389682.8      2893786.8      101985.44      272021.16     -337667.79      10.08          10.08          10.08          1024.1925    
       989   0             -526.72764      1845924.5      1784524.5      1215076.3      2538172.6      224929.65      299008.13     -60265.068      10.08          10.08          10.08          1024.1925    
       990   0             -526.80651      1845282.6      1255208.3      1388031.3      2892608.2      101782.36      272105.86     -338098.8       10.08          10.08          10.08          1024.1925    
       991   0             -526.90953      1844978.3      1785431.1      1213865.5      2535638.3      225212.41      299043.65     -60269.902      10.08          10.08          10.08          1024.1925    
       992   0             -526.98835      1844335.8      1255195.4      1386395.5      2891416.4      101582.73      272185.28     -338521.77      10.08          10.08          10.08          1024.1925    
       993   0             -527.09119      1844030        1786339.8      1212656.3      2533093.9      225496.7       299078.88     -60270.111      10.08          10.08          10.08          1024.1925    
       994   0             -527.16996      1843386.9      1255172.6      1384783.1      2890205.1      101387.53      272256.67     -338932.36      10.08          10.08          10.08          1024.1925    
       995   0             -527.27262      1843079.7      1787249.1      1211447.8      2530542.3      225782.58      299113.57     -60267.809      10.08          10.08          10.08          1024.1925    
       996   0             -527.35136      1842436.1      1255142.1      1383180        2888986.1      101194.67      272325.21     -339340.89      10.08          10.08          10.08          1024.1925    
       997   0             -527.45383      1842127.5      1788159.4      1210242.2      2527981        226069.84      299147.63     -60260.944      10.08          10.08          10.08          1024.1925    
       998   0             -527.53254      1841483.2      1255104        1381587        2887758.7      101003.7       272390.75     -339746.67      10.08          10.08          10.08          1024.1925    
       999   0             -527.63482      1841173.4      1789070.4      1209042.1      2525407.7      226358.76      299180.35     -60248.376      10.08          10.08          10.08          1024.1925    
      1000   0             -527.7135       1840528.5      1255058.4      1380004.5      2886522.7      100813.99      272453.37     -340149.34      10.08          10.08          10.08          1024.1925    
Loop time of 1.05669 on 1 procs for 500 steps with 64 atoms

98.1% CPU use with 1 MPI tasks x no OpenMP threads

Minimization stats:
  Stopping criterion = max iterations
  Energy initial, next-to-last, final = 
      166.183778223984  -527.634820743092  -527.713498621095
  Force two-norm initial, final = 0.007269813 236.59077
  Force max component initial, final = 0.0012144616 93.147439
  Final line search alpha, max atom move = 0.00010903895 0.010156699
  Iterations, force evaluations = 500 841

MPI task timing breakdown:
Section |  min time  |  avg time  |  max time  |%varavg| %total
---------------------------------------------------------------
Pair    | 1.0429     | 1.0429     | 1.0429     |   0.0 | 98.69
Neigh   | 0.0009167  | 0.0009167  | 0.0009167  |   0.0 |  0.09
Comm    | 0.0040601  | 0.0040601  | 0.0040601  |   0.0 |  0.38
Output  | 0.0058253  | 0.0058253  | 0.0058253  |   0.0 |  0.55
Modify  | 0          | 0          | 0          |   0.0 |  0.00
Other   |            | 0.003019   |            |       |  0.29

Nlocal:             64 ave          64 max          64 min
Histogram: 1 0 0 0 0 0 0 0 0 0
Nghost:           1267 ave        1267 max        1267 min
Histogram: 1 0 0 0 0 0 0 0 0 0
Neighs:           4851 ave        4851 max        4851 min
Histogram: 1 0 0 0 0 0 0 0 0 0
FullNghs:         9702 ave        9702 max        9702 min
Histogram: 1 0 0 0 0 0 0 0 0 0

Total # of neighbors = 9702
Ave neighs/atom = 151.59375
Neighbor list builds = 2
Dangerous builds = 0

# Obtain new stress tensor

variable tmp equal pe
variable e1 equal ${tmp}
variable e1 equal -527.713498621095
variable tmp equal press
variable p1 equal ${tmp}
variable p1 equal 1840528.52161394
variable tmp equal pxx
variable pxx1 equal ${tmp}
variable pxx1 equal 1255058.37797369
variable tmp equal pyy
variable pyy1 equal ${tmp}
variable pyy1 equal 1380004.4866261
variable tmp equal pzz
variable pzz1 equal ${tmp}
variable pzz1 equal 2886522.70024202
variable tmp equal pxy
variable pxy1 equal ${tmp}
variable pxy1 equal 100813.989544191
variable tmp equal pxz
variable pxz1 equal ${tmp}
variable pxz1 equal 272453.369656168
variable tmp equal pyz
variable pyz1 equal ${tmp}
variable pyz1 equal -340149.342709804

# Compute elastic constant from pressure tensor

variable C1pos equal ${d1}
variable C1pos equal 313556078.536632
variable C2pos equal ${d2}
variable C2pos equal 301061467.671391
variable C3pos equal ${d3}
variable C3pos equal 150409646.309799
variable C4pos equal ${d4}
variable C4pos equal 34014934.2709804
variable C5pos equal ${d5}
variable C5pos equal -27245336.9656168
variable C6pos equal ${d6}
variable C6pos equal -10081398.9544191

# Combine positive and negative

variable C1${dir} equal 0.5*(${C1neg}+${C1pos})
variable C16 equal 0.5*(${C1neg}+${C1pos})
variable C16 equal 0.5*(-314288571.256443+${C1pos})
variable C16 equal 0.5*(-314288571.256443+313556078.536632)
variable C2${dir} equal 0.5*(${C2neg}+${C2pos})
variable C26 equal 0.5*(${C2neg}+${C2pos})
variable C26 equal 0.5*(-299476184.26797+${C2pos})
variable C26 equal 0.5*(-299476184.26797+301061467.671391)
variable C3${dir} equal 0.5*(${C3neg}+${C3pos})
variable C36 equal 0.5*(${C3neg}+${C3pos})
variable C36 equal 0.5*(-321567069.675897+${C3pos})
variable C36 equal 0.5*(-321567069.675897+150409646.309799)
variable C4${dir} equal 0.5*(${C4neg}+${C4pos})
variable C46 equal 0.5*(${C4neg}+${C4pos})
variable C46 equal 0.5*(-27310740.0814839+${C4pos})
variable C46 equal 0.5*(-27310740.0814839+34014934.2709804)
variable C5${dir} equal 0.5*(${C5neg}+${C5pos})
variable C56 equal 0.5*(${C5neg}+${C5pos})
variable C56 equal 0.5*(-13051129.8841704+${C5pos})
variable C56 equal 0.5*(-13051129.8841704+-27245336.9656168)
variable C6${dir} equal 0.5*(${C6neg}+${C6pos})
variable C66 equal 0.5*(${C6neg}+${C6pos})
variable C66 equal 0.5*(14143110.0279068+${C6pos})
variable C66 equal 0.5*(14143110.0279068+-10081398.9544191)

# Delete dir to make sure it is not reused

variable dir delete

# Output final values

variable C11all equal ${C11}
variable C11all equal -106989.411146998
variable C22all equal ${C22}
variable C22all equal -68862.244287014
variable C33all equal ${C33}
variable C33all equal -18603551.002885

variable C12all equal 0.5*(${C12}+${C21})
variable C12all equal 0.5*(4265714.78190799+${C21})
variable C12all equal 0.5*(4265714.78190799+284917.019748986)
variable C13all equal 0.5*(${C13}+${C31})
variable C13all equal 0.5*(-19212122.575599+${C31})
variable C13all equal 0.5*(-19212122.575599+23126.8045504987)
variable C23all equal 0.5*(${C23}+${C32})
variable C23all equal 0.5*(-20093862.108049+${C32})
variable C23all equal 0.5*(-20093862.108049+3361760.1073195)

variable C44all equal ${C44}
variable C44all equal 6279946.5973475
variable C55all equal ${C55}
variable C55all equal -20375059.1461173
variable C66all equal ${C66}
variable C66all equal 2030855.53674385

variable C14all equal 0.5*(${C14}+${C41})
variable C14all equal 0.5*(13493207.722163+${C41})
variable C14all equal 0.5*(13493207.722163+-113635.792209748)
variable C15all equal 0.5*(${C15}+${C51})
variable C15all equal 0.5*(15296611.411133+${C51})
variable C15all equal 0.5*(15296611.411133+-167649.6742178)
variable C16all equal 0.5*(${C16}+${C61})
variable C16all equal 0.5*(-366246.359905511+${C61})
variable C16all equal 0.5*(-366246.359905511+232463.215607565)

variable C24all equal 0.5*(${C24}+${C42})
variable C24all equal 0.5*(-6957771.58769+${C42})
variable C24all equal 0.5*(-6957771.58769+-458241.874282202)
variable C25all equal 0.5*(${C25}+${C52})
variable C25all equal 0.5*(-4104719.02230901+${C52})
variable C25all equal 0.5*(-4104719.02230901+1783215.17658325)
variable C26all equal 0.5*(${C26}+${C62})
variable C26all equal 0.5*(792641.701710492+${C62})
variable C26all equal 0.5*(792641.701710492+-1042211.70523925)

variable C34all equal 0.5*(${C34}+${C43})
variable C34all equal 0.5*(-52973361.568654+${C43})
variable C34all equal 0.5*(-52973361.568654+-1668923.5406064)
variable C35all equal 0.5*(${C35}+${C53})
variable C35all equal 0.5*(-93765101.1999745+${C53})
variable C35all equal 0.5*(-93765101.1999745+-4544929.7924239)
variable C36all equal 0.5*(${C36}+${C63})
variable C36all equal 0.5*(-85578711.683049+${C63})
variable C36all equal 0.5*(-85578711.683049+-7151917.19093535)

variable C45all equal 0.5*(${C45}+${C54})
variable C45all equal 0.5*(12421100.4009562+${C54})
variable C45all equal 0.5*(12421100.4009562+-6916203.30763857)
variable C46all equal 0.5*(${C46}+${C64})
variable C46all equal 0.5*(3352097.09474825+${C64})
variable C46all equal 0.5*(3352097.09474825+-1046522.87208385)
variable C56all equal 0.5*(${C56}+${C65})
variable C56all equal 0.5*(-20148233.4248936+${C65})
variable C56all equal 0.5*(-20148233.4248936+8742205.71523809)

# Average moduli for cubic crystals

variable C11cubic equal (${C11all}+${C22all}+${C33all})/3.0
variable C11cubic equal (-106989.411146998+${C22all}+${C33all})/3.0
variable C11cubic equal (-106989.411146998+-68862.244287014+${C33all})/3.0
variable C11cubic equal (-106989.411146998+-68862.244287014+-18603551.002885)/3.0
variable C12cubic equal (${C12all}+${C13all}+${C23all})/3.0
variable C12cubic equal (2275315.90082849+${C13all}+${C23all})/3.0
variable C12cubic equal (2275315.90082849+-9594497.88552425+${C23all})/3.0
variable C12cubic equal (2275315.90082849+-9594497.88552425+-8366051.00036475)/3.0
variable C44cubic equal (${C44all}+${C55all}+${C66all})/3.0
variable C44cubic equal (6279946.5973475+${C55all}+${C66all})/3.0
variable C44cubic equal (6279946.5973475+-20375059.1461173+${C66all})/3.0
variable C44cubic equal (6279946.5973475+-20375059.1461173+2030855.53674385)/3.0

variable bulkmodulus equal (${C11cubic}+2*${C12cubic})/3.0
variable bulkmodulus equal (-6259800.88610634+2*${C12cubic})/3.0
variable bulkmodulus equal (-6259800.88610634+2*-5228410.99502017)/3.0
variable shearmodulus1 equal ${C44cubic}
variable shearmodulus1 equal -4021419.00400865
variable shearmodulus2 equal (${C11cubic}-${C12cubic})/2.0
variable shearmodulus2 equal (-6259800.88610634-${C12cubic})/2.0
variable shearmodulus2 equal (-6259800.88610634--5228410.99502017)/2.0
variable poissonratio equal 1.0/(1.0+${C11cubic}/${C12cubic})
variable poissonratio equal 1.0/(1.0+-6259800.88610634/${C12cubic})
variable poissonratio equal 1.0/(1.0+-6259800.88610634/-5228410.99502017)

# For Stillinger-Weber silicon, the analytical results
# are known to be (E. R. Cowley, 1988):
#               C11 = 151.4 GPa
#               C12 = 76.4 GPa
#               C44 = 56.4 GPa

print "========================================="
=========================================
print "Components of the Elastic Constant Tensor"
Components of the Elastic Constant Tensor
print "========================================="
=========================================

print "Elastic Constant C11all = ${C11all} ${cunits}"
Elastic Constant C11all = -106989.411146998 GPa
print "Elastic Constant C22all = ${C22all} ${cunits}"
Elastic Constant C22all = -68862.244287014 GPa
print "Elastic Constant C33all = ${C33all} ${cunits}"
Elastic Constant C33all = -18603551.002885 GPa

print "Elastic Constant C12all = ${C12all} ${cunits}"
Elastic Constant C12all = 2275315.90082849 GPa
print "Elastic Constant C13all = ${C13all} ${cunits}"
Elastic Constant C13all = -9594497.88552425 GPa
print "Elastic Constant C23all = ${C23all} ${cunits}"
Elastic Constant C23all = -8366051.00036475 GPa

print "Elastic Constant C44all = ${C44all} ${cunits}"
Elastic Constant C44all = 6279946.5973475 GPa
print "Elastic Constant C55all = ${C55all} ${cunits}"
Elastic Constant C55all = -20375059.1461173 GPa
print "Elastic Constant C66all = ${C66all} ${cunits}"
Elastic Constant C66all = 2030855.53674385 GPa

print "Elastic Constant C14all = ${C14all} ${cunits}"
Elastic Constant C14all = 6689785.96497663 GPa
print "Elastic Constant C15all = ${C15all} ${cunits}"
Elastic Constant C15all = 7564480.8684576 GPa
print "Elastic Constant C16all = ${C16all} ${cunits}"
Elastic Constant C16all = -66891.572148973 GPa

print "Elastic Constant C24all = ${C24all} ${cunits}"
Elastic Constant C24all = -3708006.7309861 GPa
print "Elastic Constant C25all = ${C25all} ${cunits}"
Elastic Constant C25all = -1160751.92286288 GPa
print "Elastic Constant C26all = ${C26all} ${cunits}"
Elastic Constant C26all = -124785.001764379 GPa

print "Elastic Constant C34all = ${C34all} ${cunits}"
Elastic Constant C34all = -27321142.5546302 GPa
print "Elastic Constant C35all = ${C35all} ${cunits}"
Elastic Constant C35all = -49155015.4961992 GPa
print "Elastic Constant C36all = ${C36all} ${cunits}"
Elastic Constant C36all = -46365314.4369922 GPa

print "Elastic Constant C45all = ${C45all} ${cunits}"
Elastic Constant C45all = 2752448.54665882 GPa
print "Elastic Constant C46all = ${C46all} ${cunits}"
Elastic Constant C46all = 1152787.1113322 GPa
print "Elastic Constant C56all = ${C56all} ${cunits}"
Elastic Constant C56all = -5703013.85482775 GPa

print "========================================="
=========================================
print "Average properties for a cubic crystal"
Average properties for a cubic crystal
print "========================================="
=========================================

print "Bulk Modulus = ${bulkmodulus} ${cunits}"
Bulk Modulus = -5572207.62538223 GPa
print "Shear Modulus 1 = ${shearmodulus1} ${cunits}"
Shear Modulus 1 = -4021419.00400865 GPa
print "Shear Modulus 2 = ${shearmodulus2} ${cunits}"
Shear Modulus 2 = -515694.945543085 GPa
print "Poisson Ratio = ${poissonratio}"
Poisson Ratio = 0.455110947562667
Total wall time: 0:00:14
