ITEM: TIMESTEP
0
ITEM: NUMBER OF ATOMS
64
ITEM: BOX BOUNDS pp pp pp
-4.2420000000000000e+00 4.2420000000000000e+00
-4.2420000000000000e+00 4.2420000000000000e+00
-4.2420000000000000e+00 4.2420000000000000e+00
ITEM: ATOMS id element type xs ys zs c_csym c_eng
1 C 1 0 0 0 8.99728 -6.65286
2 C 1 0.25 0.25 0 13.4959 -6.65286
3 C 1 0.25 0 0.25 4.49864 -6.65286
4 C 1 0 0.25 0.25 8.99728 -6.65286
33 C 2 0.25 0 1.04689e-16 13.4959 -6.57714
34 C 2 0 0.25 1.04689e-16 13.4959 -6.57714
41 C 2 0 0 0.25 8.99728 -6.57714
42 C 2 0.25 0.25 0.25 8.99728 -6.57714
5 C 1 0.5 0 0 8.99728 -6.65286
6 C 1 0.75 0.25 0 13.4959 -6.65286
7 C 1 0.75 0 0.25 4.49864 -6.65286
8 C 1 0.5 0.25 0.25 8.99728 -6.65286
35 C 2 0.75 0 1.04689e-16 13.4959 -6.57714
36 C 2 0.5 0.25 1.04689e-16 13.4959 -6.57714
45 C 2 0.5 0 0.25 8.99728 -6.57714
46 C 2 0.75 0.25 0.25 8.99728 -6.57714
9 C 1 0 0.5 0 8.99728 -6.65286
10 C 1 0.25 0.75 0 8.99728 -6.65286
11 C 1 0.25 0.5 0.25 4.49864 -6.65286
12 C 1 0 0.75 0.25 8.99728 -6.65286
37 C 2 0.25 0.5 1.04689e-16 13.4959 -6.57714
38 C 2 0 0.75 1.04689e-16 13.4959 -6.57714
49 C 2 0 0.5 0.25 8.99728 -6.57714
50 C 2 0.25 0.75 0.25 8.99728 -6.57714
13 C 1 0.5 0.5 0 4.49864 -6.65286
14 C 1 0.75 0.75 0 4.49864 -6.65286
15 C 1 0.75 0.5 0.25 4.49864 -6.65286
16 C 1 0.5 0.75 0.25 8.99728 -6.65286
39 C 2 0.75 0.5 1.04689e-16 13.4959 -6.57714
40 C 2 0.5 0.75 1.04689e-16 8.99728 -6.57714
53 C 2 0.5 0.5 0.25 8.99728 -6.57714
54 C 2 0.75 0.75 0.25 8.99728 -6.57714
17 C 1 0 0 0.5 8.99728 -6.65286
18 C 1 0.25 0.25 0.5 4.49864 -6.65286
19 C 1 0.25 0 0.75 13.4959 -6.65286
20 C 1 0 0.25 0.75 8.99728 -6.65286
43 C 2 0.25 0 0.5 8.99728 -6.57714
44 C 2 0 0.25 0.5 8.99728 -6.57714
57 C 2 0 0 0.75 8.99728 -6.57714
58 C 2 0.25 0.25 0.75 4.49864 -6.57714
21 C 1 0.5 0 0.5 8.99728 -6.65286
22 C 1 0.75 0.25 0.5 4.49864 -6.65286
23 C 1 0.75 0 0.75 13.4959 -6.65286
24 C 1 0.5 0.25 0.75 8.99728 -6.65286
47 C 2 0.75 0 0.5 8.99728 -6.57714
48 C 2 0.5 0.25 0.5 4.49864 -6.57714
59 C 2 0.5 0 0.75 8.99728 -6.57714
60 C 2 0.75 0.25 0.75 4.49864 -6.57714
25 C 1 0 0.5 0.5 8.99728 -6.65286
26 C 1 0.25 0.75 0.5 4.49864 -6.65286
27 C 1 0.25 0.5 0.75 4.49864 -6.65286
28 C 1 0 0.75 0.75 8.99728 -6.65286
51 C 2 0.25 0.5 0.5 8.99728 -6.57714
52 C 2 0 0.75 0.5 8.99728 -6.57714
61 C 2 0 0.5 0.75 8.99728 -6.57714
62 C 2 0.25 0.75 0.75 4.49864 -6.57714
29 C 1 0.5 0.5 0.5 8.99728 -6.65286
30 C 1 0.75 0.75 0.5 4.49864 -6.65286
31 C 1 0.75 0.5 0.75 4.49864 -6.65286
32 C 1 0.5 0.75 0.75 8.99728 -6.65286
55 C 2 0.75 0.5 0.5 8.99728 -6.57714
56 C 2 0.5 0.75 0.5 4.49864 -6.57714
63 C 2 0.5 0.5 0.75 13.4959 -6.57714
64 C 2 0.75 0.75 0.75 4.49864 -6.57714
