ITEM: TIMESTEP
19
ITEM: NUMBER OF ATOMS
63
ITEM: BOX BOUNDS pp pp pp
-4.2420000000000000e+00 4.2420000000000000e+00
-4.2420000000000000e+00 4.2420000000000000e+00
-4.2420000000000000e+00 4.2420000000000000e+00
ITEM: ATOMS id type element xs ys zs c_csym c_eng
1 1 Ti 0 0 0 8.98948 -6.65242
2 1 Ti 0.249892 0.249892 0 13.4369 -6.65073
3 1 Ti 0.249892 0 0.249892 13.4369 -6.65073
4 1 Ti 0 0.249892 0.249892 13.4369 -6.65073
5 2 N 0.249839 0 0 4.47352 -6.5795
6 2 N 0 0.249839 0 4.47352 -6.5795
7 2 N 0 0 0.249839 4.47352 -6.5795
8 2 N 0.250333 0.250333 0.250333 8.95303 -6.57709
9 1 Ti 0.5 0 0 4.49474 -6.64107
10 1 Ti 0.750108 0.249892 0 13.4369 -6.65073
11 1 Ti 0.750108 0 0.249892 13.4369 -6.65073
12 1 Ti 0.5 0.251658 0.251658 8.24263 -6.60703
13 2 N 0.750161 0 0 4.47352 -6.5795
14 2 N 0.5 0.249299 0 4.23275 -6.49602
15 2 N 0.5 0 0.249299 4.23275 -6.49602
16 2 N 0.749667 0.250333 0.250333 8.95303 -6.57709
17 1 Ti 0 0.5 0 4.49474 -6.64107
18 1 Ti 0.249892 0.750108 0 13.4369 -6.65073
19 1 Ti 0.251658 0.5 0.251658 8.24263 -6.60703
20 1 Ti 0 0.750108 0.249892 13.4369 -6.65073
21 2 N 0.249299 0.5 0 4.23275 -6.49602
22 2 N 0 0.750161 0 4.47352 -6.5795
23 2 N 0 0.5 0.249299 4.23275 -6.49602
24 2 N 0.250333 0.749667 0.250333 8.95303 -6.57709
25 1 Ti 0.5 0.5 0 4.44556 -6.60715
26 1 Ti 0.750108 0.750108 0 13.4369 -6.65073
27 1 Ti 0.748342 0.5 0.251658 8.24263 -6.60703
28 1 Ti 0.5 0.748342 0.251658 8.24263 -6.60703
29 2 N 0.750701 0.5 0 4.23275 -6.49602
30 2 N 0.5 0.750701 0 4.23275 -6.49602
31 2 N 0.5 0.5 0.242228 11.7739 -5.93976
32 2 N 0.749667 0.749667 0.250333 8.95303 -6.57709
33 1 Ti 0 0 0.5 4.49474 -6.64107
34 1 Ti 0.251658 0.251658 0.5 8.24263 -6.60703
35 1 Ti 0.249892 0 0.750108 13.4369 -6.65073
36 1 Ti 0 0.249892 0.750108 13.4369 -6.65073
37 2 N 0.249299 0 0.5 4.23275 -6.49602
38 2 N 0 0.249299 0.5 4.23275 -6.49602
39 2 N 0 0 0.750161 4.47352 -6.5795
40 2 N 0.250333 0.250333 0.749667 8.95303 -6.57709
41 1 Ti 0.5 0 0.5 4.44556 -6.60715
42 1 Ti 0.748342 0.251658 0.5 8.24263 -6.60703
43 1 Ti 0.750108 0 0.750108 13.4369 -6.65073
44 1 Ti 0.5 0.251658 0.748342 8.24263 -6.60703
45 2 N 0.750701 0 0.5 4.23275 -6.49602
46 2 N 0.5 0.242228 0.5 11.7739 -5.93976
47 2 N 0.5 0 0.750701 4.23275 -6.49602
48 2 N 0.749667 0.250333 0.749667 8.95303 -6.57709
49 1 Ti 0 0.5 0.5 4.44556 -6.60715
50 1 Ti 0.251658 0.748342 0.5 8.24263 -6.60703
51 1 Ti 0.251658 0.5 0.748342 8.24263 -6.60703
52 1 Ti 0 0.750108 0.750108 13.4369 -6.65073
53 2 N 0.242228 0.5 0.5 11.7739 -5.93976
54 2 N 0 0.750701 0.5 4.23275 -6.49602
55 2 N 0 0.5 0.750701 4.23275 -6.49602
56 2 N 0.250333 0.749667 0.749667 8.95303 -6.57709
57 2 N 0.749667 0.749667 0.749667 8.95303 -6.57709
58 1 Ti 0.748342 0.748342 0.5 8.24263 -6.60703
59 1 Ti 0.748342 0.5 0.748342 8.24263 -6.60703
60 1 Ti 0.5 0.748342 0.748342 8.24263 -6.60703
61 2 N 0.757772 0.5 0.5 11.7739 -5.93976
62 2 N 0.5 0.757772 0.5 11.7739 -5.93976
63 2 N 0.5 0.5 0.757772 11.7739 -5.93976
