ITEM: TIMESTEP
0
ITEM: NUMBER OF ATOMS
63
ITEM: BOX BOUNDS pp pp pp
-4.2420000000000000e+00 4.2420000000000000e+00
-4.2420000000000000e+00 4.2420000000000000e+00
-4.2420000000000000e+00 4.2420000000000000e+00
ITEM: ATOMS id type element xs ys zs c_csym c_eng
1 1 C 0 0 0 8.99728 -6.65286
2 1 C 0.25 0.25 0 13.4959 -6.65286
3 1 C 0.25 0 0.25 8.99728 -6.65286
4 1 C 0 0.25 0.25 13.4959 -6.65286
5 2 C 0.25 0 0 8.99728 -6.57714
6 2 C 0 0.25 0 8.99728 -6.57714
7 2 C 0 0 0.25 8.99728 -6.57714
8 2 C 0.25 0.25 0.25 8.99728 -6.57714
9 1 C 0.5 0 0 8.99728 -6.65286
10 1 C 0.75 0.25 0 13.4959 -6.65286
11 1 C 0.75 0 0.25 8.99728 -6.65286
12 1 C 0.5 0.25 0.25 4.49864 -6.60667
13 2 C 0.75 0 0 13.4959 -6.57714
14 2 C 0.5 0.25 0 8.99728 -6.57714
15 2 C 0.5 0 0.25 8.99728 -6.57714
16 2 C 0.75 0.25 0.25 4.49864 -6.57714
17 1 C 0 0.5 0 8.99728 -6.65286
18 1 C 0.25 0.75 0 8.99728 -6.65286
19 1 C 0.25 0.5 0.25 13.4959 -6.60667
20 1 C 0 0.75 0.25 13.4959 -6.65286
21 2 C 0.25 0.5 0 8.99728 -6.57714
22 2 C 0 0.75 0 13.4959 -6.57714
23 2 C 0 0.5 0.25 8.99728 -6.57714
24 2 C 0.25 0.75 0.25 4.49864 -6.57714
25 1 C 0.5 0.5 0 8.99728 -6.65286
26 1 C 0.75 0.75 0 4.49864 -6.65286
27 1 C 0.75 0.5 0.25 13.4959 -6.60667
28 1 C 0.5 0.75 0.25 8.99728 -6.60667
29 2 C 0.75 0.5 0 8.99728 -6.57714
30 2 C 0.5 0.75 0 13.4959 -6.57714
31 2 C 0.5 0.5 0.25 8.99728 -5.6805
32 2 C 0.75 0.75 0.25 8.99728 -6.57714
33 1 C 0 0 0.5 13.4959 -6.65286
34 1 C 0.25 0.25 0.5 8.99728 -6.60667
35 1 C 0.25 0 0.75 8.99728 -6.65286
36 1 C 0 0.25 0.75 13.4959 -6.65286
37 2 C 0.25 0 0.5 8.99728 -6.57714
38 2 C 0 0.25 0.5 8.99728 -6.57714
39 2 C 0 0 0.75 8.99728 -6.57714
40 2 C 0.25 0.25 0.75 4.49864 -6.57714
41 1 C 0.5 0 0.5 8.99728 -6.65286
42 1 C 0.75 0.25 0.5 8.99728 -6.60667
43 1 C 0.75 0 0.75 8.99728 -6.65286
44 1 C 0.5 0.25 0.75 8.99728 -6.60667
45 2 C 0.75 0 0.5 8.99728 -6.57714
46 2 C 0.5 0.25 0.5 8.99728 -5.6805
47 2 C 0.5 0 0.75 8.99728 -6.57714
48 2 C 0.75 0.25 0.75 8.99728 -6.57714
49 1 C 0 0.5 0.5 8.99728 -6.65286
50 1 C 0.25 0.75 0.5 8.99728 -6.60667
51 1 C 0.25 0.5 0.75 8.99728 -6.60667
52 1 C 0 0.75 0.75 13.4959 -6.65286
53 2 C 0.25 0.5 0.5 8.99728 -5.6805
54 2 C 0 0.75 0.5 8.99728 -6.57714
55 2 C 0 0.5 0.75 8.99728 -6.57714
56 2 C 0.25 0.75 0.75 0 -6.57714
57 2 C 0.75 0.75 0.75 4.49864 -6.57714
58 1 C 0.75 0.75 0.5 8.99728 -6.60667
59 1 C 0.75 0.5 0.75 8.99728 -6.60667
60 1 C 0.5 0.75 0.75 8.99728 -6.60667
61 2 C 0.75 0.5 0.5 8.99728 -5.6805
62 2 C 0.5 0.75 0.5 4.49864 -5.6805
63 2 C 0.5 0.5 0.75 8.99728 -5.6805
