ITEM: TIMESTEP
1
ITEM: NUMBER OF ATOMS
64
ITEM: BOX BOUNDS pp pp pp
-4.2420000000000000e+00 4.2420000000000000e+00
-4.2420000000000000e+00 4.2420000000000000e+00
-4.2420000000000000e+00 4.2420000000000000e+00
ITEM: ATOMS id element type xs ys zs c_csym c_eng
1 Ti 1 0 0 0 8.99728 -6.65286
2 Ti 1 0.25 0.25 0 13.4959 -6.65286
3 Ti 1 0.25 0 0.25 8.99728 -6.65286
4 Ti 1 0 0.25 0.25 13.4959 -6.65286
33 N 2 0.25 0 0 8.99728 -6.57714
34 N 2 0 0.25 0 8.99728 -6.57714
41 N 2 0 0 0.25 8.99728 -6.57714
42 N 2 0.25 0.25 0.25 4.49864 -6.57714
5 Ti 1 0.5 0 0 8.99728 -6.65286
6 Ti 1 0.75 0.25 0 13.4959 -6.65286
7 Ti 1 0.75 0 0.25 8.99728 -6.65286
8 Ti 1 0.5 0.25 0.25 4.49864 -6.65286
35 N 2 0.75 0 0 13.4959 -6.57714
36 N 2 0.5 0.25 0 8.99728 -6.57714
45 N 2 0.5 0 0.25 8.99728 -6.57714
46 N 2 0.75 0.25 0.25 4.49864 -6.57714
9 Ti 1 0 0.5 0 8.99728 -6.65286
10 Ti 1 0.25 0.75 0 8.99728 -6.65286
11 Ti 1 0.25 0.5 0.25 8.99728 -6.65286
12 Ti 1 0 0.75 0.25 13.4959 -6.65286
37 N 2 0.25 0.5 0 8.99728 -6.57714
38 N 2 0 0.75 0 13.4959 -6.57714
49 N 2 0 0.5 0.25 8.99728 -6.57714
50 N 2 0.25 0.75 0.25 4.49864 -6.57714
13 Ti 1 0.5 0.5 0 4.49864 -6.65286
14 Ti 1 0.75 0.75 0 4.49864 -6.65286
15 Ti 1 0.75 0.5 0.25 8.99728 -6.65286
16 Ti 1 0.5 0.75 0.25 4.49864 -6.65286
39 N 2 0.75 0.5 0 8.99728 -6.57714
40 N 2 0.5 0.75 0 8.99728 -6.57714
53 N 2 0.5 0.5 0.25 4.49864 -6.57714
54 N 2 0.75 0.75 0.25 8.99728 -6.57714
17 Ti 1 0 0 0.5 13.4959 -6.65286
18 Ti 1 0.25 0.25 0.5 4.49864 -6.65286
19 Ti 1 0.25 0 0.75 8.99728 -6.65286
20 Ti 1 0 0.25 0.75 13.4959 -6.65286
43 N 2 0.25 0 0.5 8.99728 -6.57714
44 N 2 0 0.25 0.5 8.99728 -6.57714
57 N 2 0 0 0.75 8.99728 -6.57714
58 N 2 0.25 0.25 0.75 4.49864 -6.57714
21 Ti 1 0.5 0 0.5 8.99728 -6.65286
22 Ti 1 0.75 0.25 0.5 4.49864 -6.65286
23 Ti 1 0.75 0 0.75 8.99728 -6.65286
24 Ti 1 0.5 0.25 0.75 4.49864 -6.65286
47 N 2 0.75 0 0.5 8.99728 -6.57714
48 N 2 0.5 0.25 0.5 4.49864 -6.57714
59 N 2 0.5 0 0.75 8.99728 -6.57714
60 N 2 0.75 0.25 0.75 4.49864 -6.57714
25 Ti 1 0 0.5 0.5 8.99728 -6.65286
26 Ti 1 0.25 0.75 0.5 4.49864 -6.65286
27 Ti 1 0.25 0.5 0.75 8.99728 -6.65286
28 Ti 1 0 0.75 0.75 13.4959 -6.65286
51 N 2 0.25 0.5 0.5 8.99728 -6.57714
52 N 2 0 0.75 0.5 8.99728 -6.57714
61 N 2 0 0.5 0.75 8.99728 -6.57714
62 N 2 0.25 0.75 0.75 4.49864 -6.57714
29 Ti 1 0.5 0.5 0.5 8.99728 -6.65286
30 Ti 1 0.75 0.75 0.5 4.49864 -6.65286
31 Ti 1 0.75 0.5 0.75 8.99728 -6.65286
32 Ti 1 0.5 0.75 0.75 4.49864 -6.65286
55 N 2 0.75 0.5 0.5 4.49864 -6.57714
56 N 2 0.5 0.75 0.5 4.49864 -6.57714
63 N 2 0.5 0.5 0.75 4.49864 -6.57714
64 N 2 0.75 0.75 0.75 4.49864 -6.57714
