ITEM: TIMESTEP
0
ITEM: NUMBER OF ATOMS
63
ITEM: BOX BOUNDS pp pp pp
-4.2420000000000000e+00 4.2420000000000000e+00
-4.2420000000000000e+00 4.2420000000000000e+00
-4.2420000000000000e+00 4.2420000000000000e+00
ITEM: ATOMS id type element xs ys zs c_csym c_eng
1 1 Ti 0 0 0 8.99728 -6.65286
2 1 Ti 0.25 0.25 0 8.99728 -6.65286
3 1 Ti 0.25 0 0.25 8.99728 -6.65286
4 1 Ti 0 0.25 0.25 13.4959 -6.65286
5 2 N 0.25 0 0 8.99728 -6.57714
6 2 N 0 0.25 0 8.99728 -6.57714
7 2 N 0 0 0.25 8.99728 -6.57714
8 2 N 0.25 0.25 0.25 4.49864 -6.57714
9 1 Ti 0.5 0 0 8.99728 -6.65286
10 1 Ti 0.75 0.25 0 8.99728 -6.65286
11 1 Ti 0.75 0 0.25 8.99728 -6.65286
12 1 Ti 0.5 0.25 0.25 4.49864 -6.65286
13 2 N 0.75 0 0 13.4959 -6.57714
14 2 N 0.5 0.25 0 8.99728 -6.70657
15 2 N 0.5 0 0.25 8.99728 -6.57714
16 2 N 0.75 0.25 0.25 4.49864 -6.57714
17 1 Ti 0 0.5 0 8.99728 -6.65286
18 1 Ti 0.25 0.75 0 8.99728 -6.65286
19 1 Ti 0.25 0.5 0.25 8.99728 -6.65286
20 1 Ti 0 0.75 0.25 13.4959 -6.65286
21 2 N 0.25 0.5 0 8.99728 -6.70657
22 2 N 0 0.75 0 13.4959 -6.57714
23 2 N 0 0.5 0.25 8.99728 -6.57714
24 2 N 0.25 0.75 0.25 4.49864 -6.57714
25 1 Ti 0.5 0.5 0 8.99728 -6.3263
26 1 Ti 0.75 0.75 0 8.99728 -6.65286
27 1 Ti 0.75 0.5 0.25 8.99728 -6.65286
28 1 Ti 0.5 0.75 0.25 4.49864 -6.65286
29 2 N 0.75 0.5 0 8.99728 -6.70657
30 2 N 0.5 0.75 0 4.49864 -6.70657
31 2 N 0.5 0.5 0.25 4.49864 -6.57714
32 2 N 0.75 0.75 0.25 8.99728 -6.57714
33 1 Ti 0 0 0.5 13.4959 -6.65286
34 1 Ti 0.25 0.25 0.5 8.99728 -6.65286
35 1 Ti 0.25 0 0.75 8.99728 -6.65286
36 1 Ti 0 0.25 0.75 13.4959 -6.65286
37 2 N 0.25 0 0.5 8.99728 -6.57714
38 2 N 0 0.25 0.5 8.99728 -6.57714
39 2 N 0 0 0.75 8.99728 -6.57714
40 2 N 0.25 0.25 0.75 4.49864 -6.70657
41 1 Ti 0.5 0 0.5 8.99728 -6.65286
42 1 Ti 0.75 0.25 0.5 8.99728 -6.65286
43 1 Ti 0.75 0 0.75 8.99728 -6.65286
44 1 Ti 0.5 0.25 0.75 8.99728 -6.3263
45 2 N 0.75 0 0.5 8.99728 -6.57714
46 2 N 0.5 0.25 0.5 4.49864 -6.70657
47 2 N 0.5 0 0.75 8.99728 -6.57714
48 2 N 0.75 0.25 0.75 4.49864 -6.70657
49 1 Ti 0 0.5 0.5 8.99728 -6.65286
50 1 Ti 0.25 0.75 0.5 8.99728 -6.65286
51 1 Ti 0.25 0.5 0.75 13.4959 -6.3263
52 1 Ti 0 0.75 0.75 13.4959 -6.65286
53 2 N 0.25 0.5 0.5 8.99728 -6.70657
54 2 N 0 0.75 0.5 8.99728 -6.57714
55 2 N 0 0.5 0.75 13.4959 -6.57714
56 2 N 0.25 0.75 0.75 4.49864 -6.70657
57 1 Ti 0.5 0.5 0.5 13.4959 -6.3263
58 1 Ti 0.75 0.75 0.5 4.49864 -6.65286
59 1 Ti 0.75 0.5 0.75 13.4959 -6.3263
60 1 Ti 0.5 0.75 0.75 8.99728 -6.3263
61 2 N 0.75 0.5 0.5 8.99728 -6.70657
62 2 N 0.5 0.75 0.5 4.49864 -6.70657
63 2 N 0.75 0.75 0.75 4.49864 -6.70657
