ITEM: TIMESTEP
9
ITEM: NUMBER OF ATOMS
63
ITEM: BOX BOUNDS pp pp pp
-4.2420000000000000e+00 4.2420000000000000e+00
-4.2420000000000000e+00 4.2420000000000000e+00
-4.2420000000000000e+00 4.2420000000000000e+00
ITEM: ATOMS id type element xs ys zs c_csym c_eng
1 1 Ti 0 0 6.28426e-05 4.46911 -6.65254
2 1 Ti 0.250885 0.250885 -0.000885486 13.3679 -6.65298
3 1 Ti 0.249937 0 0.25 4.46911 -6.65254
4 1 Ti 0 0.249937 0.25 4.46911 -6.65254
5 2 N 0.250218 0 -0.000217686 4.45398 -6.59444
6 2 N 0 0.250218 -0.000217686 4.45398 -6.59444
7 2 N 0 0 0.25 4.50648 -6.59508
8 2 N 0.250218 0.250218 0.25 4.45398 -6.59444
9 1 Ti 0.5 0 0.000825673 4.11722 -6.67181
10 1 Ti 0.749115 0.250885 -0.000885486 13.3679 -6.65298
11 1 Ti 0.750063 0 0.25 4.46911 -6.65254
12 1 Ti 0.5 0.249174 0.25 4.11722 -6.67181
13 2 N 0.749782 0 -0.000217686 4.45398 -6.59444
14 2 N 0.5 0.253193 -0.00319312 7.82854 -6.71437
15 2 N 0.5 0 0.25 1.17467e-30 -6.67402
16 2 N 0.749782 0.250218 0.25 8.90733 -6.59444
17 1 Ti 0 0.5 0.000825673 4.11722 -6.67181
18 1 Ti 0.250885 0.749115 -0.000885486 8.91385 -6.65298
19 1 Ti 0.249174 0.5 0.25 4.11722 -6.67181
20 1 Ti 0 0.750063 0.25 4.46911 -6.65254
21 2 N 0.253193 0.5 -0.00319312 7.82854 -6.71437
22 2 N 0 0.749782 -0.000217686 8.90733 -6.59444
23 2 N 0 0.5 0.25 4.49089 -6.67402
24 2 N 0.250218 0.749782 0.25 8.90733 -6.59444
25 1 Ti 0.5 0.5 0.0114749 10.9923 -6.21267
26 1 Ti 0.749115 0.749115 -0.000885486 8.91385 -6.65298
27 1 Ti 0.750826 0.5 0.25 4.11722 -6.67181
28 1 Ti 0.5 0.750826 0.25 4.11722 -6.67181
29 2 N 0.746807 0.5 -0.00319312 7.82854 -6.71437
30 2 N 0.5 0.746807 -0.00319312 7.82854 -6.71437
31 2 N 0.5 0.5 0.25 4.39994 -6.75941
32 2 N 0.749782 0.749782 0.25 8.90733 -6.59444
33 1 Ti 0 0 0.499937 4.46911 -6.65254
34 1 Ti 0.250885 0.250885 0.500885 8.91385 -6.65298
35 1 Ti 0.249174 0 0.75 4.11722 -6.67181
36 1 Ti 0 0.249174 0.75 4.11722 -6.67181
37 2 N 0.250218 0 0.500218 4.45398 -6.59444
38 2 N 0 0.250218 0.500218 4.45398 -6.59444
39 2 N 0 0 0.75 4.49089 -6.67402
40 2 N 0.253193 0.253193 0.75 7.82854 -6.71437
41 1 Ti 0.5 0 0.499174 4.11722 -6.67181
42 1 Ti 0.749115 0.250885 0.500885 8.91385 -6.65298
43 1 Ti 0.750826 0 0.75 4.11722 -6.67181
44 1 Ti 0.5 0.238525 0.75 10.9923 -6.21267
45 2 N 0.749782 0 0.500218 4.45398 -6.59444
46 2 N 0.5 0.253193 0.503193 7.82854 -6.71437
47 2 N 0.5 0 0.75 4.39994 -6.75941
48 2 N 0.746807 0.253193 0.75 7.82854 -6.71437
49 1 Ti 0 0.5 0.499174 4.11722 -6.67181
50 1 Ti 0.250885 0.749115 0.500885 8.91385 -6.65298
51 1 Ti 0.238525 0.5 0.75 10.9923 -6.21267
52 1 Ti 0 0.750826 0.75 4.11722 -6.67181
53 2 N 0.253193 0.5 0.503193 7.82854 -6.71437
54 2 N 0 0.749782 0.500218 4.45398 -6.59444
55 2 N 0 0.5 0.75 4.39994 -6.75941
56 2 N 0.253193 0.746807 0.75 7.82854 -6.71437
57 1 Ti 0.5 0.5 0.488525 10.9923 -6.21267
58 1 Ti 0.749115 0.749115 0.500885 8.91385 -6.65298
59 1 Ti 0.761475 0.5 0.75 10.9923 -6.21267
60 1 Ti 0.5 0.761475 0.75 10.9923 -6.21267
61 2 N 0.746807 0.5 0.503193 7.82854 -6.71437
62 2 N 0.5 0.746807 0.503193 7.82854 -6.71437
63 2 N 0.746807 0.746807 0.75 7.82854 -6.71437
