ITEM: TIMESTEP
0
ITEM: NUMBER OF ATOMS
1000
ITEM: BOX BOUNDS pp pp pp
0.0000000000000000e+00 2.2699999999999999e+01
0.0000000000000000e+00 2.2699999999999999e+01
0.0000000000000000e+00 2.2699999999999999e+01
ITEM: ATOMS id element type xs ys zs c_csym c_eng
1 Zr 1 0 0 0 10.3058 -12.5713
2 Zr 1 0.1 0.1 0 10.3058 -12.5713
3 Zr 1 0.1 0 0.1 10.3058 -12.5713
4 Zr 1 0 0.1 0.1 10.3058 -12.5713
5 Zr 1 0.2 0 0 10.3058 -12.5713
8 Zr 1 0.2 0.1 0.1 5.1529 -12.5713
21 Zr 1 0 0.2 0 10.3058 -12.5713
23 Zr 1 0.1 0.2 0.1 10.3058 -12.5713
25 Zr 1 0.2 0.2 0 10.3058 -12.5713
101 Zr 1 0 0 0.2 10.3058 -12.5713
102 Zr 1 0.1 0.1 0.2 5.1529 -12.5713
105 Zr 1 0.2 0 0.2 10.3058 -12.5713
121 Zr 1 0 0.2 0.2 10.3058 -12.5713
125 Zr 1 0.2 0.2 0.2 15.4587 -12.5713
501 N 2 0.1 0 0 10.3058 -7.84865
502 N 2 0 0.1 0 10.3058 -7.84865
504 N 2 0.2 0.1 0 10.3058 -7.84865
511 N 2 0.1 0.2 0 5.1529 -7.84865
551 N 2 0 0 0.1 15.4587 -7.84865
552 N 2 0.1 0.1 0.1 5.1529 -7.84865
553 N 2 0.1 0 0.2 10.3058 -7.84865
554 N 2 0 0.1 0.2 10.3058 -7.84865
555 N 2 0.2 0 0.1 10.3058 -7.84865
558 N 2 0.2 0.1 0.2 10.3058 -7.84865
571 N 2 0 0.2 0.1 10.3058 -7.84865
573 N 2 0.1 0.2 0.2 15.4587 -7.84865
575 N 2 0.2 0.2 0.1 10.3058 -7.84865
6 Zr 1 0.3 0.1 0 15.4587 -12.5713
7 Zr 1 0.3 0 0.1 15.4587 -12.5713
9 Zr 1 0.4 0 0 15.4587 -12.5713
12 Zr 1 0.4 0.1 0.1 5.1529 -12.5713
27 Zr 1 0.3 0.2 0.1 15.4587 -12.5713
29 Zr 1 0.4 0.2 0 5.1529 -12.5713
106 Zr 1 0.3 0.1 0.2 10.3058 -12.5713
109 Zr 1 0.4 0 0.2 10.3058 -12.5713
129 Zr 1 0.4 0.2 0.2 10.3058 -12.5713
503 N 2 0.3 0 0 10.3058 -7.84865
506 N 2 0.4 0.1 0 10.3058 -7.84865
513 N 2 0.3 0.2 0 10.3058 -7.84865
556 N 2 0.3 0.1 0.1 15.4587 -7.84865
557 N 2 0.3 0 0.2 15.4587 -7.84865
559 N 2 0.4 0 0.1 10.3058 -7.84865
562 N 2 0.4 0.1 0.2 5.1529 -7.84865
577 N 2 0.3 0.2 0.2 10.3058 -7.84865
579 N 2 0.4 0.2 0.1 5.1529 -7.84865
10 Zr 1 0.5 0.1 0 15.4587 -12.5713
11 Zr 1 0.5 0 0.1 15.4587 -12.5713
13 Zr 1 0.6 0 0 15.4587 -12.5713
14 Zr 1 0.7 0.1 0 10.3058 -12.5713
15 Zr 1 0.7 0 0.1 5.1529 -12.5713
16 Zr 1 0.6 0.1 0.1 15.4587 -12.5713
31 Zr 1 0.5 0.2 0.1 15.4587 -12.5713
33 Zr 1 0.6 0.2 0 15.4587 -12.5713
35 Zr 1 0.7 0.2 0.1 5.1529 -12.5713
110 Zr 1 0.5 0.1 0.2 15.4587 -12.5713
113 Zr 1 0.6 0 0.2 15.4587 -12.5713
114 Zr 1 0.7 0.1 0.2 5.1529 -12.5713
133 Zr 1 0.6 0.2 0.2 15.4587 -12.5713
505 N 2 0.5 0 0 10.3058 -7.84865
507 N 2 0.7 0 0 15.4587 -7.84865
508 N 2 0.6 0.1 0 15.4587 -7.84865
515 N 2 0.5 0.2 0 10.3058 -7.84865
517 N 2 0.7 0.2 0 5.1529 -7.84865
560 N 2 0.5 0.1 0.1 15.4587 -7.84865
561 N 2 0.5 0 0.2 10.3058 -7.84865
563 N 2 0.6 0 0.1 15.4587 -7.84865
564 N 2 0.7 0.1 0.1 5.1529 -7.84865
565 N 2 0.7 0 0.2 10.3058 -7.84865
566 N 2 0.6 0.1 0.2 10.3058 -7.84865
581 N 2 0.5 0.2 0.2 15.4587 -7.84865
583 N 2 0.6 0.2 0.1 15.4587 -7.84865
585 N 2 0.7 0.2 0.2 10.3058 -7.84865
17 Zr 1 0.8 0 0 15.4587 -12.5713
18 Zr 1 0.9 0.1 0 10.3058 -12.5713
19 Zr 1 0.9 0 0.1 10.3058 -12.5713
20 Zr 1 0.8 0.1 0.1 5.1529 -12.5713
37 Zr 1 0.8 0.2 0 10.3058 -12.5713
39 Zr 1 0.9 0.2 0.1 5.1529 -12.5713
117 Zr 1 0.8 0 0.2 5.1529 -12.5713
118 Zr 1 0.9 0.1 0.2 5.1529 -12.5713
137 Zr 1 0.8 0.2 0.2 15.4587 -12.5713
509 N 2 0.9 0 0 10.3058 -7.84865
510 N 2 0.8 0.1 0 5.1529 -7.84865
519 N 2 0.9 0.2 0 5.1529 -7.84865
567 N 2 0.8 0 0.1 5.1529 -7.84865
568 N 2 0.9 0.1 0.1 5.1529 -7.84865
569 N 2 0.9 0 0.2 10.3058 -7.84865
570 N 2 0.8 0.1 0.2 5.1529 -7.84865
587 N 2 0.8 0.2 0.1 5.1529 -7.84865
589 N 2 0.9 0.2 0.2 10.3058 -7.84865
22 Zr 1 0.1 0.3 0 15.4587 -12.5713
24 Zr 1 0 0.3 0.1 15.4587 -12.5713
28 Zr 1 0.2 0.3 0.1 15.4587 -12.5713
41 Zr 1 0 0.4 0 10.3058 -12.5713
43 Zr 1 0.1 0.4 0.1 5.1529 -12.5713
45 Zr 1 0.2 0.4 0 5.1529 -12.5713
122 Zr 1 0.1 0.3 0.2 10.3058 -12.5713
141 Zr 1 0 0.4 0.2 10.3058 -12.5713
145 Zr 1 0.2 0.4 0.2 10.3058 -12.5713
512 N 2 0 0.3 0 10.3058 -7.84865
514 N 2 0.2 0.3 0 10.3058 -7.84865
521 N 2 0.1 0.4 0 10.3058 -7.84865
572 N 2 0.1 0.3 0.1 15.4587 -7.84865
574 N 2 0 0.3 0.2 15.4587 -7.84865
578 N 2 0.2 0.3 0.2 10.3058 -7.84865
591 N 2 0 0.4 0.1 5.1529 -7.84865
593 N 2 0.1 0.4 0.2 5.1529 -7.84865
595 N 2 0.2 0.4 0.1 5.1529 -7.84865
26 Zr 1 0.3 0.3 0 10.3058 -12.5713
32 Zr 1 0.4 0.3 0.1 10.3058 -12.5713
47 Zr 1 0.3 0.4 0.1 15.4587 -12.5713
49 Zr 1 0.4 0.4 0 10.3058 -12.5713
126 Zr 1 0.3 0.3 0.2 15.4587 -12.5713
149 Zr 1 0.4 0.4 0.2 5.1529 -12.5713
516 N 2 0.4 0.3 0 15.4587 -7.84865
523 N 2 0.3 0.4 0 10.3058 -7.84865
576 N 2 0.3 0.3 0.1 10.3058 -7.84865
582 N 2 0.4 0.3 0.2 15.4587 -7.84865
597 N 2 0.3 0.4 0.2 10.3058 -7.84865
599 N 2 0.4 0.4 0.1 0 -7.84865
30 Zr 1 0.5 0.3 0 15.4587 -12.5713
34 Zr 1 0.7 0.3 0 15.4587 -12.5713
36 Zr 1 0.6 0.3 0.1 10.3058 -12.5713
51 Zr 1 0.5 0.4 0.1 10.3058 -12.5713
53 Zr 1 0.6 0.4 0 15.4587 -12.5713
55 Zr 1 0.7 0.4 0.1 5.1529 -12.5713
130 Zr 1 0.5 0.3 0.2 10.3058 -12.5713
134 Zr 1 0.7 0.3 0.2 15.4587 -12.5713
153 Zr 1 0.6 0.4 0.2 10.3058 -12.5713
518 N 2 0.6 0.3 0 10.3058 -7.84865
525 N 2 0.5 0.4 0 15.4587 -7.84865
527 N 2 0.7 0.4 0 10.3058 -7.84865
580 N 2 0.5 0.3 0.1 10.3058 -7.84865
584 N 2 0.7 0.3 0.1 15.4587 -7.84865
586 N 2 0.6 0.3 0.2 10.3058 -7.84865
601 N 2 0.5 0.4 0.2 15.4587 -7.84865
603 N 2 0.6 0.4 0.1 10.3058 -7.84865
605 N 2 0.7 0.4 0.2 5.1529 -7.84865
38 Zr 1 0.9 0.3 0 10.3058 -12.5713
40 Zr 1 0.8 0.3 0.1 15.4587 -12.5713
57 Zr 1 0.8 0.4 0 10.3058 -12.5713
59 Zr 1 0.9 0.4 0.1 0 -12.5713
138 Zr 1 0.9 0.3 0.2 10.3058 -12.5713
157 Zr 1 0.8 0.4 0.2 5.1529 -12.5713
520 N 2 0.8 0.3 0 10.3058 -7.84865
529 N 2 0.9 0.4 0 15.4587 -7.84865
588 N 2 0.9 0.3 0.1 10.3058 -7.84865
590 N 2 0.8 0.3 0.2 10.3058 -7.84865
607 N 2 0.8 0.4 0.1 5.1529 -7.84865
609 N 2 0.9 0.4 0.2 5.1529 -7.84865
42 Zr 1 0.1 0.5 0 15.4587 -12.5713
44 Zr 1 0 0.5 0.1 15.4587 -12.5713
48 Zr 1 0.2 0.5 0.1 10.3058 -12.5713
61 Zr 1 0 0.6 0 10.3058 -12.5713
62 Zr 1 0.1 0.7 0 5.1529 -12.5713
63 Zr 1 0.1 0.6 0.1 10.3058 -12.5713
64 Zr 1 0 0.7 0.1 10.3058 -12.5713
65 Zr 1 0.2 0.6 0 10.3058 -12.5713
68 Zr 1 0.2 0.7 0.1 5.1529 -12.5713
142 Zr 1 0.1 0.5 0.2 10.3058 -12.5713
161 Zr 1 0 0.6 0.2 10.3058 -12.5713
162 Zr 1 0.1 0.7 0.2 5.1529 -12.5713
165 Zr 1 0.2 0.6 0.2 15.4587 -12.5713
522 N 2 0 0.5 0 10.3058 -7.84865
524 N 2 0.2 0.5 0 15.4587 -7.84865
531 N 2 0.1 0.6 0 15.4587 -7.84865
532 N 2 0 0.7 0 10.3058 -7.84865
534 N 2 0.2 0.7 0 5.1529 -7.84865
592 N 2 0.1 0.5 0.1 15.4587 -7.84865
594 N 2 0 0.5 0.2 10.3058 -7.84865
598 N 2 0.2 0.5 0.2 15.4587 -7.84865
611 N 2 0 0.6 0.1 15.4587 -7.84865
612 N 2 0.1 0.7 0.1 5.1529 -7.84865
613 N 2 0.1 0.6 0.2 15.4587 -7.84865
614 N 2 0 0.7 0.2 5.1529 -7.84865
615 N 2 0.2 0.6 0.1 10.3058 -7.84865
618 N 2 0.2 0.7 0.2 10.3058 -7.84865
46 Zr 1 0.3 0.5 0 10.3058 -12.5713
52 Zr 1 0.4 0.5 0.1 10.3058 -12.5713
66 Zr 1 0.3 0.7 0 10.3058 -12.5713
67 Zr 1 0.3 0.6 0.1 10.3058 -12.5713
69 Zr 1 0.4 0.6 0 10.3058 -12.5713
72 Zr 1 0.4 0.7 0.1 5.1529 -12.5713
146 Zr 1 0.3 0.5 0.2 10.3058 -12.5713
166 Zr 1 0.3 0.7 0.2 15.4587 -12.5713
169 Zr 1 0.4 0.6 0.2 15.4587 -12.5713
526 N 2 0.4 0.5 0 10.3058 -7.84865
533 N 2 0.3 0.6 0 10.3058 -7.84865
536 N 2 0.4 0.7 0 10.3058 -7.84865
596 N 2 0.3 0.5 0.1 15.4587 -7.84865
602 N 2 0.4 0.5 0.2 10.3058 -7.84865
616 N 2 0.3 0.7 0.1 10.3058 -7.84865
617 N 2 0.3 0.6 0.2 10.3058 -7.84865
619 N 2 0.4 0.6 0.1 10.3058 -7.84865
622 N 2 0.4 0.7 0.2 5.1529 -7.84865
50 Zr 1 0.5 0.5 0 15.4587 -12.5713
54 Zr 1 0.7 0.5 0 15.4587 -12.5713
56 Zr 1 0.6 0.5 0.1 10.3058 -12.5713
70 Zr 1 0.5 0.7 0 10.3058 -12.5713
71 Zr 1 0.5 0.6 0.1 10.3058 -12.5713
73 Zr 1 0.6 0.6 0 10.3058 -12.5713
74 Zr 1 0.7 0.7 0 5.1529 -12.5713
75 Zr 1 0.7 0.6 0.1 10.3058 -12.5713
76 Zr 1 0.6 0.7 0.1 10.3058 -12.5713
150 Zr 1 0.5 0.5 0.2 15.4587 -12.5713
154 Zr 1 0.7 0.5 0.2 10.3058 -12.5713
170 Zr 1 0.5 0.7 0.2 10.3058 -12.5713
173 Zr 1 0.6 0.6 0.2 10.3058 -12.5713
174 Zr 1 0.7 0.7 0.2 5.1529 -12.5713
528 N 2 0.6 0.5 0 10.3058 -7.84865
535 N 2 0.5 0.6 0 10.3058 -7.84865
537 N 2 0.7 0.6 0 10.3058 -7.84865
538 N 2 0.6 0.7 0 15.4587 -7.84865
600 N 2 0.5 0.5 0.1 10.3058 -7.84865
604 N 2 0.7 0.5 0.1 10.3058 -7.84865
606 N 2 0.6 0.5 0.2 10.3058 -7.84865
620 N 2 0.5 0.7 0.1 15.4587 -7.84865
621 N 2 0.5 0.6 0.2 10.3058 -7.84865
623 N 2 0.6 0.6 0.1 15.4587 -7.84865
624 N 2 0.7 0.7 0.1 5.1529 -7.84865
625 N 2 0.7 0.6 0.2 10.3058 -7.84865
626 N 2 0.6 0.7 0.2 10.3058 -7.84865
58 Zr 1 0.9 0.5 0 15.4587 -12.5713
60 Zr 1 0.8 0.5 0.1 15.4587 -12.5713
77 Zr 1 0.8 0.6 0 10.3058 -12.5713
78 Zr 1 0.9 0.7 0 15.4587 -12.5713
79 Zr 1 0.9 0.6 0.1 15.4587 -12.5713
80 Zr 1 0.8 0.7 0.1 0 -12.5713
158 Zr 1 0.9 0.5 0.2 10.3058 -12.5713
177 Zr 1 0.8 0.6 0.2 15.4587 -12.5713
178 Zr 1 0.9 0.7 0.2 5.1529 -12.5713
530 N 2 0.8 0.5 0 15.4587 -7.84865
539 N 2 0.9 0.6 0 15.4587 -7.84865
540 N 2 0.8 0.7 0 15.4587 -7.84865
608 N 2 0.9 0.5 0.1 10.3058 -7.84865
610 N 2 0.8 0.5 0.2 10.3058 -7.84865
627 N 2 0.8 0.6 0.1 10.3058 -7.84865
628 N 2 0.9 0.7 0.1 5.1529 -7.84865
629 N 2 0.9 0.6 0.2 10.3058 -7.84865
630 N 2 0.8 0.7 0.2 5.1529 -7.84865
81 Zr 1 0 0.8 0 15.4587 -12.5713
82 Zr 1 0.1 0.9 0 10.3058 -12.5713
83 Zr 1 0.1 0.8 0.1 5.1529 -12.5713
84 Zr 1 0 0.9 0.1 15.4587 -12.5713
85 Zr 1 0.2 0.8 0 10.3058 -12.5713
88 Zr 1 0.2 0.9 0.1 5.1529 -12.5713
181 Zr 1 0 0.8 0.2 5.1529 -12.5713
182 Zr 1 0.1 0.9 0.2 5.1529 -12.5713
185 Zr 1 0.2 0.8 0.2 10.3058 -12.5713
541 N 2 0.1 0.8 0 5.1529 -7.84865
542 N 2 0 0.9 0 10.3058 -7.84865
544 N 2 0.2 0.9 0 5.1529 -7.84865
631 N 2 0 0.8 0.1 10.3058 -7.84865
632 N 2 0.1 0.9 0.1 5.1529 -7.84865
633 N 2 0.1 0.8 0.2 5.1529 -7.84865
634 N 2 0 0.9 0.2 5.1529 -7.84865
635 N 2 0.2 0.8 0.1 5.1529 -7.84865
638 N 2 0.2 0.9 0.2 15.4587 -7.84865
86 Zr 1 0.3 0.9 0 10.3058 -12.5713
87 Zr 1 0.3 0.8 0.1 10.3058 -12.5713
89 Zr 1 0.4 0.8 0 5.1529 -12.5713
92 Zr 1 0.4 0.9 0.1 5.1529 -12.5713
186 Zr 1 0.3 0.9 0.2 10.3058 -12.5713
189 Zr 1 0.4 0.8 0.2 5.1529 -12.5713
543 N 2 0.3 0.8 0 10.3058 -7.84865
546 N 2 0.4 0.9 0 5.1529 -7.84865
636 N 2 0.3 0.9 0.1 10.3058 -7.84865
637 N 2 0.3 0.8 0.2 10.3058 -7.84865
639 N 2 0.4 0.8 0.1 0 -7.84865
642 N 2 0.4 0.9 0.2 5.1529 -7.84865
90 Zr 1 0.5 0.9 0 10.3058 -12.5713
91 Zr 1 0.5 0.8 0.1 10.3058 -12.5713
93 Zr 1 0.6 0.8 0 15.4587 -12.5713
94 Zr 1 0.7 0.9 0 10.3058 -12.5713
95 Zr 1 0.7 0.8 0.1 5.1529 -12.5713
96 Zr 1 0.6 0.9 0.1 10.3058 -12.5713
190 Zr 1 0.5 0.9 0.2 15.4587 -12.5713
193 Zr 1 0.6 0.8 0.2 10.3058 -12.5713
194 Zr 1 0.7 0.9 0.2 5.1529 -12.5713
545 N 2 0.5 0.8 0 15.4587 -7.84865
547 N 2 0.7 0.8 0 10.3058 -7.84865
548 N 2 0.6 0.9 0 15.4587 -7.84865
640 N 2 0.5 0.9 0.1 15.4587 -7.84865
641 N 2 0.5 0.8 0.2 10.3058 -7.84865
643 N 2 0.6 0.8 0.1 10.3058 -7.84865
644 N 2 0.7 0.9 0.1 5.1529 -7.84865
645 N 2 0.7 0.8 0.2 5.1529 -7.84865
646 N 2 0.6 0.9 0.2 15.4587 -7.84865
97 Zr 1 0.8 0.8 0 10.3058 -12.5713
98 Zr 1 0.9 0.9 0 10.3058 -12.5713
99 Zr 1 0.9 0.8 0.1 5.1529 -12.5713
100 Zr 1 0.8 0.9 0.1 5.1529 -12.5713
197 Zr 1 0.8 0.8 0.2 5.1529 -12.5713
198 Zr 1 0.9 0.9 0.2 5.1529 -12.5713
549 N 2 0.9 0.8 0 15.4587 -7.84865
550 N 2 0.8 0.9 0 10.3058 -7.84865
647 N 2 0.8 0.8 0.1 5.1529 -7.84865
648 N 2 0.9 0.9 0.1 5.1529 -7.84865
649 N 2 0.9 0.8 0.2 5.1529 -7.84865
650 N 2 0.8 0.9 0.2 5.1529 -7.84865
103 Zr 1 0.1 0 0.3 15.4587 -12.5713
104 Zr 1 0 0.1 0.3 15.4587 -12.5713
108 Zr 1 0.2 0.1 0.3 15.4587 -12.5713
123 Zr 1 0.1 0.2 0.3 10.3058 -12.5713
201 Zr 1 0 0 0.4 15.4587 -12.5713
202 Zr 1 0.1 0.1 0.4 5.1529 -12.5713
205 Zr 1 0.2 0 0.4 5.1529 -12.5713
221 Zr 1 0 0.2 0.4 5.1529 -12.5713
225 Zr 1 0.2 0.2 0.4 10.3058 -12.5713
651 N 2 0 0 0.3 10.3058 -7.84865
652 N 2 0.1 0.1 0.3 15.4587 -7.84865
653 N 2 0.1 0 0.4 10.3058 -7.84865
654 N 2 0 0.1 0.4 5.1529 -7.84865
655 N 2 0.2 0 0.3 10.3058 -7.84865
658 N 2 0.2 0.1 0.4 5.1529 -7.84865
671 N 2 0 0.2 0.3 10.3058 -7.84865
673 N 2 0.1 0.2 0.4 5.1529 -7.84865
675 N 2 0.2 0.2 0.3 15.4587 -7.84865
107 Zr 1 0.3 0 0.3 10.3058 -12.5713
112 Zr 1 0.4 0.1 0.3 15.4587 -12.5713
127 Zr 1 0.3 0.2 0.3 10.3058 -12.5713
206 Zr 1 0.3 0.1 0.4 15.4587 -12.5713
209 Zr 1 0.4 0 0.4 10.3058 -12.5713
229 Zr 1 0.4 0.2 0.4 5.1529 -12.5713
656 N 2 0.3 0.1 0.3 10.3058 -7.84865
657 N 2 0.3 0 0.4 15.4587 -7.84865
659 N 2 0.4 0 0.3 15.4587 -7.84865
662 N 2 0.4 0.1 0.4 5.1529 -7.84865
677 N 2 0.3 0.2 0.4 10.3058 -7.84865
679 N 2 0.4 0.2 0.3 15.4587 -7.84865
111 Zr 1 0.5 0 0.3 15.4587 -12.5713
115 Zr 1 0.7 0 0.3 15.4587 -12.5713
116 Zr 1 0.6 0.1 0.3 15.4587 -12.5713
131 Zr 1 0.5 0.2 0.3 10.3058 -12.5713
135 Zr 1 0.7 0.2 0.3 10.3058 -12.5713
210 Zr 1 0.5 0.1 0.4 15.4587 -12.5713
213 Zr 1 0.6 0 0.4 10.3058 -12.5713
214 Zr 1 0.7 0.1 0.4 5.1529 -12.5713
233 Zr 1 0.6 0.2 0.4 10.3058 -12.5713
660 N 2 0.5 0.1 0.3 10.3058 -7.84865
661 N 2 0.5 0 0.4 10.3058 -7.84865
663 N 2 0.6 0 0.3 10.3058 -7.84865
664 N 2 0.7 0.1 0.3 10.3058 -7.84865
665 N 2 0.7 0 0.4 5.1529 -7.84865
666 N 2 0.6 0.1 0.4 10.3058 -7.84865
681 N 2 0.5 0.2 0.4 10.3058 -7.84865
683 N 2 0.6 0.2 0.3 10.3058 -7.84865
685 N 2 0.7 0.2 0.4 5.1529 -7.84865
119 Zr 1 0.9 0 0.3 10.3058 -12.5713
120 Zr 1 0.8 0.1 0.3 15.4587 -12.5713
139 Zr 1 0.9 0.2 0.3 15.4587 -12.5713
217 Zr 1 0.8 0 0.4 15.4587 -12.5713
218 Zr 1 0.9 0.1 0.4 5.1529 -12.5713
237 Zr 1 0.8 0.2 0.4 5.1529 -12.5713
667 N 2 0.8 0 0.3 10.3058 -7.84865
668 N 2 0.9 0.1 0.3 10.3058 -7.84865
669 N 2 0.9 0 0.4 10.3058 -7.84865
670 N 2 0.8 0.1 0.4 5.1529 -7.84865
687 N 2 0.8 0.2 0.3 10.3058 -7.84865
689 N 2 0.9 0.2 0.4 5.1529 -7.84865
124 Zr 1 0 0.3 0.3 10.3058 -12.5713
128 Zr 1 0.2 0.3 0.3 15.4587 -12.5713
143 Zr 1 0.1 0.4 0.3 10.3058 -12.5713
222 Zr 1 0.1 0.3 0.4 5.1529 -12.5713
241 Zr 1 0 0.4 0.4 10.3058 -12.5713
245 Zr 1 0.2 0.4 0.4 5.1529 -12.5713
672 N 2 0.1 0.3 0.3 15.4587 -7.84865
674 N 2 0 0.3 0.4 10.3058 -7.84865
678 N 2 0.2 0.3 0.4 10.3058 -7.84865
691 N 2 0 0.4 0.3 15.4587 -7.84865
693 N 2 0.1 0.4 0.4 0 -7.84865
695 N 2 0.2 0.4 0.3 15.4587 -7.84865
132 Zr 1 0.4 0.3 0.3 10.3058 -12.5713
147 Zr 1 0.3 0.4 0.3 15.4587 -12.5713
226 Zr 1 0.3 0.3 0.4 15.4587 -12.5713
249 Zr 1 0.4 0.4 0.4 10.3058 -12.5713
676 N 2 0.3 0.3 0.3 15.4587 -7.84865
682 N 2 0.4 0.3 0.4 15.4587 -7.84865
697 N 2 0.3 0.4 0.4 5.1529 -7.84865
699 N 2 0.4 0.4 0.3 10.3058 -7.84865
136 Zr 1 0.6 0.3 0.3 10.3058 -12.5713
151 Zr 1 0.5 0.4 0.3 15.4587 -12.5713
155 Zr 1 0.7 0.4 0.3 10.3058 -12.5713
230 Zr 1 0.5 0.3 0.4 10.3058 -12.5713
234 Zr 1 0.7 0.3 0.4 15.4587 -12.5713
253 Zr 1 0.6 0.4 0.4 10.3058 -12.5713
680 N 2 0.5 0.3 0.3 10.3058 -7.84865
684 N 2 0.7 0.3 0.3 15.4587 -7.84865
686 N 2 0.6 0.3 0.4 10.3058 -7.84865
701 N 2 0.5 0.4 0.4 10.3058 -7.84865
703 N 2 0.6 0.4 0.3 10.3058 -7.84865
705 N 2 0.7 0.4 0.4 10.3058 -7.84865
140 Zr 1 0.8 0.3 0.3 10.3058 -12.5713
159 Zr 1 0.9 0.4 0.3 10.3058 -12.5713
238 Zr 1 0.9 0.3 0.4 10.3058 -12.5713
257 Zr 1 0.8 0.4 0.4 5.1529 -12.5713
688 N 2 0.9 0.3 0.3 10.3058 -7.84865
690 N 2 0.8 0.3 0.4 5.1529 -7.84865
707 N 2 0.8 0.4 0.3 10.3058 -7.84865
709 N 2 0.9 0.4 0.4 10.3058 -7.84865
144 Zr 1 0 0.5 0.3 10.3058 -12.5713
148 Zr 1 0.2 0.5 0.3 10.3058 -12.5713
163 Zr 1 0.1 0.6 0.3 10.3058 -12.5713
164 Zr 1 0 0.7 0.3 10.3058 -12.5713
168 Zr 1 0.2 0.7 0.3 10.3058 -12.5713
242 Zr 1 0.1 0.5 0.4 10.3058 -12.5713
261 Zr 1 0 0.6 0.4 10.3058 -12.5713
262 Zr 1 0.1 0.7 0.4 5.1529 -12.5713
265 Zr 1 0.2 0.6 0.4 15.4587 -12.5713
692 N 2 0.1 0.5 0.3 10.3058 -7.84865
694 N 2 0 0.5 0.4 15.4587 -7.84865
698 N 2 0.2 0.5 0.4 10.3058 -7.84865
711 N 2 0 0.6 0.3 10.3058 -7.84865
712 N 2 0.1 0.7 0.3 15.4587 -7.84865
713 N 2 0.1 0.6 0.4 15.4587 -7.84865
714 N 2 0 0.7 0.4 10.3058 -7.84865
715 N 2 0.2 0.6 0.3 15.4587 -7.84865
718 N 2 0.2 0.7 0.4 5.1529 -7.84865
152 Zr 1 0.4 0.5 0.3 10.3058 -12.5713
167 Zr 1 0.3 0.6 0.3 15.4587 -12.5713
172 Zr 1 0.4 0.7 0.3 10.3058 -12.5713
246 Zr 1 0.3 0.5 0.4 10.3058 -12.5713
266 Zr 1 0.3 0.7 0.4 10.3058 -12.5713
269 Zr 1 0.4 0.6 0.4 10.3058 -12.5713
696 N 2 0.3 0.5 0.3 15.4587 -7.84865
702 N 2 0.4 0.5 0.4 5.1529 -7.84865
716 N 2 0.3 0.7 0.3 15.4587 -7.84865
717 N 2 0.3 0.6 0.4 15.4587 -7.84865
719 N 2 0.4 0.6 0.3 10.3058 -7.84865
722 N 2 0.4 0.7 0.4 15.4587 -7.84865
156 Zr 1 0.6 0.5 0.3 10.3058 -12.5713
171 Zr 1 0.5 0.6 0.3 10.3058 -12.5713
175 Zr 1 0.7 0.6 0.3 10.3058 -12.5713
176 Zr 1 0.6 0.7 0.3 10.3058 -12.5713
250 Zr 1 0.5 0.5 0.4 15.4587 -12.5713
254 Zr 1 0.7 0.5 0.4 10.3058 -12.5713
270 Zr 1 0.5 0.7 0.4 5.1529 -12.5713
273 Zr 1 0.6 0.6 0.4 10.3058 -12.5713
274 Zr 1 0.7 0.7 0.4 10.3058 -12.5713
700 N 2 0.5 0.5 0.3 15.4587 -7.84865
704 N 2 0.7 0.5 0.3 10.3058 -7.84865
706 N 2 0.6 0.5 0.4 10.3058 -7.84865
720 N 2 0.5 0.7 0.3 10.3058 -7.84865
721 N 2 0.5 0.6 0.4 15.4587 -7.84865
723 N 2 0.6 0.6 0.3 10.3058 -7.84865
724 N 2 0.7 0.7 0.3 10.3058 -7.84865
725 N 2 0.7 0.6 0.4 5.1529 -7.84865
726 N 2 0.6 0.7 0.4 10.3058 -7.84865
160 Zr 1 0.8 0.5 0.3 10.3058 -12.5713
179 Zr 1 0.9 0.6 0.3 10.3058 -12.5713
180 Zr 1 0.8 0.7 0.3 15.4587 -12.5713
258 Zr 1 0.9 0.5 0.4 5.1529 -12.5713
277 Zr 1 0.8 0.6 0.4 5.1529 -12.5713
278 Zr 1 0.9 0.7 0.4 5.1529 -12.5713
708 N 2 0.9 0.5 0.3 10.3058 -7.84865
710 N 2 0.8 0.5 0.4 5.1529 -7.84865
727 N 2 0.8 0.6 0.3 15.4587 -7.84865
728 N 2 0.9 0.7 0.3 10.3058 -7.84865
729 N 2 0.9 0.6 0.4 15.4587 -7.84865
730 N 2 0.8 0.7 0.4 10.3058 -7.84865
183 Zr 1 0.1 0.8 0.3 10.3058 -12.5713
184 Zr 1 0 0.9 0.3 10.3058 -12.5713
188 Zr 1 0.2 0.9 0.3 10.3058 -12.5713
281 Zr 1 0 0.8 0.4 10.3058 -12.5713
282 Zr 1 0.1 0.9 0.4 5.1529 -12.5713
285 Zr 1 0.2 0.8 0.4 5.1529 -12.5713
731 N 2 0 0.8 0.3 15.4587 -7.84865
732 N 2 0.1 0.9 0.3 10.3058 -7.84865
733 N 2 0.1 0.8 0.4 5.1529 -7.84865
734 N 2 0 0.9 0.4 10.3058 -7.84865
735 N 2 0.2 0.8 0.3 15.4587 -7.84865
738 N 2 0.2 0.9 0.4 5.1529 -7.84865
187 Zr 1 0.3 0.8 0.3 15.4587 -12.5713
192 Zr 1 0.4 0.9 0.3 10.3058 -12.5713
286 Zr 1 0.3 0.9 0.4 10.3058 -12.5713
289 Zr 1 0.4 0.8 0.4 10.3058 -12.5713
736 N 2 0.3 0.9 0.3 10.3058 -7.84865
737 N 2 0.3 0.8 0.4 5.1529 -7.84865
739 N 2 0.4 0.8 0.3 5.1529 -7.84865
742 N 2 0.4 0.9 0.4 5.1529 -7.84865
191 Zr 1 0.5 0.8 0.3 10.3058 -12.5713
195 Zr 1 0.7 0.8 0.3 5.1529 -12.5713
196 Zr 1 0.6 0.9 0.3 10.3058 -12.5713
290 Zr 1 0.5 0.9 0.4 10.3058 -12.5713
293 Zr 1 0.6 0.8 0.4 15.4587 -12.5713
294 Zr 1 0.7 0.9 0.4 5.1529 -12.5713
740 N 2 0.5 0.9 0.3 15.4587 -7.84865
741 N 2 0.5 0.8 0.4 15.4587 -7.84865
743 N 2 0.6 0.8 0.3 10.3058 -7.84865
744 N 2 0.7 0.9 0.3 10.3058 -7.84865
745 N 2 0.7 0.8 0.4 10.3058 -7.84865
746 N 2 0.6 0.9 0.4 10.3058 -7.84865
199 Zr 1 0.9 0.8 0.3 5.1529 -12.5713
200 Zr 1 0.8 0.9 0.3 10.3058 -12.5713
297 Zr 1 0.8 0.8 0.4 10.3058 -12.5713
298 Zr 1 0.9 0.9 0.4 10.3058 -12.5713
747 N 2 0.8 0.8 0.3 5.1529 -7.84865
748 N 2 0.9 0.9 0.3 10.3058 -7.84865
749 N 2 0.9 0.8 0.4 10.3058 -7.84865
750 N 2 0.8 0.9 0.4 5.1529 -7.84865
203 Zr 1 0.1 0 0.5 15.4587 -12.5713
204 Zr 1 0 0.1 0.5 15.4587 -12.5713
208 Zr 1 0.2 0.1 0.5 15.4587 -12.5713
223 Zr 1 0.1 0.2 0.5 10.3058 -12.5713
301 Zr 1 0 0 0.6 15.4587 -12.5713
302 Zr 1 0.1 0.1 0.6 15.4587 -12.5713
303 Zr 1 0.1 0 0.7 5.1529 -12.5713
304 Zr 1 0 0.1 0.7 5.1529 -12.5713
305 Zr 1 0.2 0 0.6 15.4587 -12.5713
308 Zr 1 0.2 0.1 0.7 5.1529 -12.5713
321 Zr 1 0 0.2 0.6 10.3058 -12.5713
323 Zr 1 0.1 0.2 0.7 5.1529 -12.5713
325 Zr 1 0.2 0.2 0.6 15.4587 -12.5713
751 N 2 0 0 0.5 10.3058 -7.84865
752 N 2 0.1 0.1 0.5 5.1529 -7.84865
753 N 2 0.1 0 0.6 15.4587 -7.84865
754 N 2 0 0.1 0.6 15.4587 -7.84865
755 N 2 0.2 0 0.5 5.1529 -7.84865
758 N 2 0.2 0.1 0.6 15.4587 -7.84865
771 N 2 0 0.2 0.5 5.1529 -7.84865
773 N 2 0.1 0.2 0.6 15.4587 -7.84865
775 N 2 0.2 0.2 0.5 10.3058 -7.84865
851 N 2 0 0 0.7 15.4587 -7.84865
852 N 2 0.1 0.1 0.7 10.3058 -7.84865
855 N 2 0.2 0 0.7 10.3058 -7.84865
871 N 2 0 0.2 0.7 10.3058 -7.84865
875 N 2 0.2 0.2 0.7 10.3058 -7.84865
207 Zr 1 0.3 0 0.5 15.4587 -12.5713
212 Zr 1 0.4 0.1 0.5 5.1529 -12.5713
227 Zr 1 0.3 0.2 0.5 10.3058 -12.5713
306 Zr 1 0.3 0.1 0.6 15.4587 -12.5713
307 Zr 1 0.3 0 0.7 10.3058 -12.5713
309 Zr 1 0.4 0 0.6 10.3058 -12.5713
312 Zr 1 0.4 0.1 0.7 5.1529 -12.5713
327 Zr 1 0.3 0.2 0.7 10.3058 -12.5713
329 Zr 1 0.4 0.2 0.6 10.3058 -12.5713
756 N 2 0.3 0.1 0.5 10.3058 -7.84865
757 N 2 0.3 0 0.6 15.4587 -7.84865
759 N 2 0.4 0 0.5 15.4587 -7.84865
762 N 2 0.4 0.1 0.6 15.4587 -7.84865
777 N 2 0.3 0.2 0.6 15.4587 -7.84865
779 N 2 0.4 0.2 0.5 5.1529 -7.84865
856 N 2 0.3 0.1 0.7 10.3058 -7.84865
859 N 2 0.4 0 0.7 10.3058 -7.84865
879 N 2 0.4 0.2 0.7 10.3058 -7.84865
211 Zr 1 0.5 0 0.5 15.4587 -12.5713
215 Zr 1 0.7 0 0.5 10.3058 -12.5713
216 Zr 1 0.6 0.1 0.5 15.4587 -12.5713
231 Zr 1 0.5 0.2 0.5 10.3058 -12.5713
235 Zr 1 0.7 0.2 0.5 10.3058 -12.5713
310 Zr 1 0.5 0.1 0.6 10.3058 -12.5713
311 Zr 1 0.5 0 0.7 10.3058 -12.5713
313 Zr 1 0.6 0 0.6 10.3058 -12.5713
314 Zr 1 0.7 0.1 0.6 10.3058 -12.5713
315 Zr 1 0.7 0 0.7 5.1529 -12.5713
316 Zr 1 0.6 0.1 0.7 15.4587 -12.5713
331 Zr 1 0.5 0.2 0.7 15.4587 -12.5713
333 Zr 1 0.6 0.2 0.6 10.3058 -12.5713
335 Zr 1 0.7 0.2 0.7 5.1529 -12.5713
760 N 2 0.5 0.1 0.5 10.3058 -7.84865
761 N 2 0.5 0 0.6 10.3058 -7.84865
763 N 2 0.6 0 0.5 10.3058 -7.84865
764 N 2 0.7 0.1 0.5 5.1529 -7.84865
765 N 2 0.7 0 0.6 15.4587 -7.84865
766 N 2 0.6 0.1 0.6 10.3058 -7.84865
781 N 2 0.5 0.2 0.6 15.4587 -7.84865
783 N 2 0.6 0.2 0.5 10.3058 -7.84865
785 N 2 0.7 0.2 0.6 15.4587 -7.84865
860 N 2 0.5 0.1 0.7 10.3058 -7.84865
863 N 2 0.6 0 0.7 10.3058 -7.84865
864 N 2 0.7 0.1 0.7 10.3058 -7.84865
883 N 2 0.6 0.2 0.7 15.4587 -7.84865
219 Zr 1 0.9 0 0.5 15.4587 -12.5713
220 Zr 1 0.8 0.1 0.5 15.4587 -12.5713
239 Zr 1 0.9 0.2 0.5 10.3058 -12.5713
317 Zr 1 0.8 0 0.6 15.4587 -12.5713
318 Zr 1 0.9 0.1 0.6 15.4587 -12.5713
319 Zr 1 0.9 0 0.7 10.3058 -12.5713
320 Zr 1 0.8 0.1 0.7 5.1529 -12.5713
337 Zr 1 0.8 0.2 0.6 15.4587 -12.5713
339 Zr 1 0.9 0.2 0.7 5.1529 -12.5713
767 N 2 0.8 0 0.5 10.3058 -7.84865
768 N 2 0.9 0.1 0.5 5.1529 -7.84865
769 N 2 0.9 0 0.6 10.3058 -7.84865
770 N 2 0.8 0.1 0.6 10.3058 -7.84865
787 N 2 0.8 0.2 0.5 5.1529 -7.84865
789 N 2 0.9 0.2 0.6 10.3058 -7.84865
867 N 2 0.8 0 0.7 10.3058 -7.84865
868 N 2 0.9 0.1 0.7 10.3058 -7.84865
887 N 2 0.8 0.2 0.7 15.4587 -7.84865
224 Zr 1 0 0.3 0.5 15.4587 -12.5713
228 Zr 1 0.2 0.3 0.5 15.4587 -12.5713
243 Zr 1 0.1 0.4 0.5 10.3058 -12.5713
322 Zr 1 0.1 0.3 0.6 10.3058 -12.5713
324 Zr 1 0 0.3 0.7 10.3058 -12.5713
328 Zr 1 0.2 0.3 0.7 10.3058 -12.5713
341 Zr 1 0 0.4 0.6 10.3058 -12.5713
343 Zr 1 0.1 0.4 0.7 5.1529 -12.5713
345 Zr 1 0.2 0.4 0.6 10.3058 -12.5713
772 N 2 0.1 0.3 0.5 10.3058 -7.84865
774 N 2 0 0.3 0.6 10.3058 -7.84865
778 N 2 0.2 0.3 0.6 15.4587 -7.84865
791 N 2 0 0.4 0.5 5.1529 -7.84865
793 N 2 0.1 0.4 0.6 15.4587 -7.84865
795 N 2 0.2 0.4 0.5 5.1529 -7.84865
872 N 2 0.1 0.3 0.7 10.3058 -7.84865
891 N 2 0 0.4 0.7 10.3058 -7.84865
895 N 2 0.2 0.4 0.7 15.4587 -7.84865
232 Zr 1 0.4 0.3 0.5 10.3058 -12.5713
247 Zr 1 0.3 0.4 0.5 15.4587 -12.5713
326 Zr 1 0.3 0.3 0.6 10.3058 -12.5713
332 Zr 1 0.4 0.3 0.7 15.4587 -12.5713
347 Zr 1 0.3 0.4 0.7 10.3058 -12.5713
349 Zr 1 0.4 0.4 0.6 10.3058 -12.5713
776 N 2 0.3 0.3 0.5 10.3058 -7.84865
782 N 2 0.4 0.3 0.6 15.4587 -7.84865
797 N 2 0.3 0.4 0.6 10.3058 -7.84865
799 N 2 0.4 0.4 0.5 5.1529 -7.84865
876 N 2 0.3 0.3 0.7 15.4587 -7.84865
899 N 2 0.4 0.4 0.7 10.3058 -7.84865
236 Zr 1 0.6 0.3 0.5 10.3058 -12.5713
251 Zr 1 0.5 0.4 0.5 15.4587 -12.5713
255 Zr 1 0.7 0.4 0.5 10.3058 -12.5713
330 Zr 1 0.5 0.3 0.6 10.3058 -12.5713
334 Zr 1 0.7 0.3 0.6 10.3058 -12.5713
336 Zr 1 0.6 0.3 0.7 15.4587 -12.5713
351 Zr 1 0.5 0.4 0.7 10.3058 -12.5713
353 Zr 1 0.6 0.4 0.6 15.4587 -12.5713
355 Zr 1 0.7 0.4 0.7 15.4587 -12.5713
780 N 2 0.5 0.3 0.5 10.3058 -7.84865
784 N 2 0.7 0.3 0.5 10.3058 -7.84865
786 N 2 0.6 0.3 0.6 10.3058 -7.84865
801 N 2 0.5 0.4 0.6 10.3058 -7.84865
803 N 2 0.6 0.4 0.5 10.3058 -7.84865
805 N 2 0.7 0.4 0.6 10.3058 -7.84865
880 N 2 0.5 0.3 0.7 15.4587 -7.84865
884 N 2 0.7 0.3 0.7 15.4587 -7.84865
903 N 2 0.6 0.4 0.7 10.3058 -7.84865
240 Zr 1 0.8 0.3 0.5 10.3058 -12.5713
259 Zr 1 0.9 0.4 0.5 10.3058 -12.5713
338 Zr 1 0.9 0.3 0.6 15.4587 -12.5713
340 Zr 1 0.8 0.3 0.7 15.4587 -12.5713
357 Zr 1 0.8 0.4 0.6 10.3058 -12.5713
359 Zr 1 0.9 0.4 0.7 5.1529 -12.5713
788 N 2 0.9 0.3 0.5 10.3058 -7.84865
790 N 2 0.8 0.3 0.6 10.3058 -7.84865
807 N 2 0.8 0.4 0.5 5.1529 -7.84865
809 N 2 0.9 0.4 0.6 10.3058 -7.84865
888 N 2 0.9 0.3 0.7 15.4587 -7.84865
907 N 2 0.8 0.4 0.7 5.1529 -7.84865
244 Zr 1 0 0.5 0.5 10.3058 -12.5713
248 Zr 1 0.2 0.5 0.5 15.4587 -12.5713
263 Zr 1 0.1 0.6 0.5 10.3058 -12.5713
264 Zr 1 0 0.7 0.5 10.3058 -12.5713
268 Zr 1 0.2 0.7 0.5 10.3058 -12.5713
342 Zr 1 0.1 0.5 0.6 10.3058 -12.5713
344 Zr 1 0 0.5 0.7 10.3058 -12.5713
348 Zr 1 0.2 0.5 0.7 10.3058 -12.5713
361 Zr 1 0 0.6 0.6 10.3058 -12.5713
362 Zr 1 0.1 0.7 0.6 15.4587 -12.5713
363 Zr 1 0.1 0.6 0.7 10.3058 -12.5713
364 Zr 1 0 0.7 0.7 10.3058 -12.5713
365 Zr 1 0.2 0.6 0.6 10.3058 -12.5713
368 Zr 1 0.2 0.7 0.7 5.1529 -12.5713
792 N 2 0.1 0.5 0.5 10.3058 -7.84865
794 N 2 0 0.5 0.6 10.3058 -7.84865
798 N 2 0.2 0.5 0.6 10.3058 -7.84865
811 N 2 0 0.6 0.5 10.3058 -7.84865
812 N 2 0.1 0.7 0.5 5.1529 -7.84865
813 N 2 0.1 0.6 0.6 10.3058 -7.84865
814 N 2 0 0.7 0.6 15.4587 -7.84865
815 N 2 0.2 0.6 0.5 10.3058 -7.84865
818 N 2 0.2 0.7 0.6 15.4587 -7.84865
892 N 2 0.1 0.5 0.7 10.3058 -7.84865
911 N 2 0 0.6 0.7 15.4587 -7.84865
912 N 2 0.1 0.7 0.7 10.3058 -7.84865
915 N 2 0.2 0.6 0.7 10.3058 -7.84865
252 Zr 1 0.4 0.5 0.5 15.4587 -12.5713
267 Zr 1 0.3 0.6 0.5 15.4587 -12.5713
272 Zr 1 0.4 0.7 0.5 10.3058 -12.5713
346 Zr 1 0.3 0.5 0.6 15.4587 -12.5713
352 Zr 1 0.4 0.5 0.7 10.3058 -12.5713
366 Zr 1 0.3 0.7 0.6 15.4587 -12.5713
367 Zr 1 0.3 0.6 0.7 10.3058 -12.5713
369 Zr 1 0.4 0.6 0.6 15.4587 -12.5713
372 Zr 1 0.4 0.7 0.7 15.4587 -12.5713
796 N 2 0.3 0.5 0.5 10.3058 -7.84865
802 N 2 0.4 0.5 0.6 10.3058 -7.84865
816 N 2 0.3 0.7 0.5 10.3058 -7.84865
817 N 2 0.3 0.6 0.6 10.3058 -7.84865
819 N 2 0.4 0.6 0.5 5.1529 -7.84865
822 N 2 0.4 0.7 0.6 5.1529 -7.84865
896 N 2 0.3 0.5 0.7 15.4587 -7.84865
916 N 2 0.3 0.7 0.7 10.3058 -7.84865
919 N 2 0.4 0.6 0.7 15.4587 -7.84865
256 Zr 1 0.6 0.5 0.5 10.3058 -12.5713
271 Zr 1 0.5 0.6 0.5 15.4587 -12.5713
275 Zr 1 0.7 0.6 0.5 10.3058 -12.5713
276 Zr 1 0.6 0.7 0.5 10.3058 -12.5713
350 Zr 1 0.5 0.5 0.6 10.3058 -12.5713
354 Zr 1 0.7 0.5 0.6 10.3058 -12.5713
356 Zr 1 0.6 0.5 0.7 10.3058 -12.5713
370 Zr 1 0.5 0.7 0.6 10.3058 -12.5713
371 Zr 1 0.5 0.6 0.7 10.3058 -12.5713
373 Zr 1 0.6 0.6 0.6 10.3058 -12.5713
374 Zr 1 0.7 0.7 0.6 10.3058 -12.5713
375 Zr 1 0.7 0.6 0.7 15.4587 -12.5713
376 Zr 1 0.6 0.7 0.7 10.3058 -12.5713
800 N 2 0.5 0.5 0.5 10.3058 -7.84865
804 N 2 0.7 0.5 0.5 5.1529 -7.84865
806 N 2 0.6 0.5 0.6 15.4587 -7.84865
820 N 2 0.5 0.7 0.5 10.3058 -7.84865
821 N 2 0.5 0.6 0.6 15.4587 -7.84865
823 N 2 0.6 0.6 0.5 10.3058 -7.84865
824 N 2 0.7 0.7 0.5 5.1529 -7.84865
825 N 2 0.7 0.6 0.6 10.3058 -7.84865
826 N 2 0.6 0.7 0.6 10.3058 -7.84865
900 N 2 0.5 0.5 0.7 15.4587 -7.84865
904 N 2 0.7 0.5 0.7 10.3058 -7.84865
920 N 2 0.5 0.7 0.7 10.3058 -7.84865
923 N 2 0.6 0.6 0.7 10.3058 -7.84865
924 N 2 0.7 0.7 0.7 5.1529 -7.84865
260 Zr 1 0.8 0.5 0.5 10.3058 -12.5713
279 Zr 1 0.9 0.6 0.5 15.4587 -12.5713
280 Zr 1 0.8 0.7 0.5 10.3058 -12.5713
358 Zr 1 0.9 0.5 0.6 10.3058 -12.5713
360 Zr 1 0.8 0.5 0.7 10.3058 -12.5713
377 Zr 1 0.8 0.6 0.6 15.4587 -12.5713
378 Zr 1 0.9 0.7 0.6 10.3058 -12.5713
379 Zr 1 0.9 0.6 0.7 15.4587 -12.5713
380 Zr 1 0.8 0.7 0.7 5.1529 -12.5713
808 N 2 0.9 0.5 0.5 10.3058 -7.84865
810 N 2 0.8 0.5 0.6 15.4587 -7.84865
827 N 2 0.8 0.6 0.5 10.3058 -7.84865
828 N 2 0.9 0.7 0.5 10.3058 -7.84865
829 N 2 0.9 0.6 0.6 10.3058 -7.84865
830 N 2 0.8 0.7 0.6 5.1529 -7.84865
908 N 2 0.9 0.5 0.7 10.3058 -7.84865
927 N 2 0.8 0.6 0.7 10.3058 -7.84865
928 N 2 0.9 0.7 0.7 10.3058 -7.84865
283 Zr 1 0.1 0.8 0.5 10.3058 -12.5713
284 Zr 1 0 0.9 0.5 15.4587 -12.5713
288 Zr 1 0.2 0.9 0.5 10.3058 -12.5713
381 Zr 1 0 0.8 0.6 10.3058 -12.5713
382 Zr 1 0.1 0.9 0.6 10.3058 -12.5713
383 Zr 1 0.1 0.8 0.7 5.1529 -12.5713
384 Zr 1 0 0.9 0.7 10.3058 -12.5713
385 Zr 1 0.2 0.8 0.6 10.3058 -12.5713
388 Zr 1 0.2 0.9 0.7 5.1529 -12.5713
831 N 2 0 0.8 0.5 10.3058 -7.84865
832 N 2 0.1 0.9 0.5 5.1529 -7.84865
833 N 2 0.1 0.8 0.6 10.3058 -7.84865
834 N 2 0 0.9 0.6 10.3058 -7.84865
835 N 2 0.2 0.8 0.5 5.1529 -7.84865
838 N 2 0.2 0.9 0.6 10.3058 -7.84865
931 N 2 0 0.8 0.7 15.4587 -7.84865
932 N 2 0.1 0.9 0.7 10.3058 -7.84865
935 N 2 0.2 0.8 0.7 15.4587 -7.84865
287 Zr 1 0.3 0.8 0.5 15.4587 -12.5713
292 Zr 1 0.4 0.9 0.5 10.3058 -12.5713
386 Zr 1 0.3 0.9 0.6 15.4587 -12.5713
387 Zr 1 0.3 0.8 0.7 15.4587 -12.5713
389 Zr 1 0.4 0.8 0.6 10.3058 -12.5713
392 Zr 1 0.4 0.9 0.7 10.3058 -12.5713
836 N 2 0.3 0.9 0.5 10.3058 -7.84865
837 N 2 0.3 0.8 0.6 10.3058 -7.84865
839 N 2 0.4 0.8 0.5 10.3058 -7.84865
842 N 2 0.4 0.9 0.6 10.3058 -7.84865
936 N 2 0.3 0.9 0.7 10.3058 -7.84865
939 N 2 0.4 0.8 0.7 10.3058 -7.84865
291 Zr 1 0.5 0.8 0.5 10.3058 -12.5713
295 Zr 1 0.7 0.8 0.5 10.3058 -12.5713
296 Zr 1 0.6 0.9 0.5 15.4587 -12.5713
390 Zr 1 0.5 0.9 0.6 15.4587 -12.5713
391 Zr 1 0.5 0.8 0.7 10.3058 -12.5713
393 Zr 1 0.6 0.8 0.6 15.4587 -12.5713
394 Zr 1 0.7 0.9 0.6 10.3058 -12.5713
395 Zr 1 0.7 0.8 0.7 10.3058 -12.5713
396 Zr 1 0.6 0.9 0.7 10.3058 -12.5713
840 N 2 0.5 0.9 0.5 10.3058 -7.84865
841 N 2 0.5 0.8 0.6 10.3058 -7.84865
843 N 2 0.6 0.8 0.5 10.3058 -7.84865
844 N 2 0.7 0.9 0.5 10.3058 -7.84865
845 N 2 0.7 0.8 0.6 10.3058 -7.84865
846 N 2 0.6 0.9 0.6 10.3058 -7.84865
940 N 2 0.5 0.9 0.7 15.4587 -7.84865
943 N 2 0.6 0.8 0.7 15.4587 -7.84865
944 N 2 0.7 0.9 0.7 10.3058 -7.84865
299 Zr 1 0.9 0.8 0.5 15.4587 -12.5713
300 Zr 1 0.8 0.9 0.5 10.3058 -12.5713
397 Zr 1 0.8 0.8 0.6 10.3058 -12.5713
398 Zr 1 0.9 0.9 0.6 10.3058 -12.5713
399 Zr 1 0.9 0.8 0.7 10.3058 -12.5713
400 Zr 1 0.8 0.9 0.7 10.3058 -12.5713
847 N 2 0.8 0.8 0.5 10.3058 -7.84865
848 N 2 0.9 0.9 0.5 5.1529 -7.84865
849 N 2 0.9 0.8 0.6 5.1529 -7.84865
850 N 2 0.8 0.9 0.6 10.3058 -7.84865
947 N 2 0.8 0.8 0.7 5.1529 -7.84865
948 N 2 0.9 0.9 0.7 5.1529 -7.84865
401 Zr 1 0 0 0.8 10.3058 -12.5713
402 Zr 1 0.1 0.1 0.8 0 -12.5713
403 Zr 1 0.1 0 0.9 5.1529 -12.5713
404 Zr 1 0 0.1 0.9 10.3058 -12.5713
405 Zr 1 0.2 0 0.8 10.3058 -12.5713
408 Zr 1 0.2 0.1 0.9 5.1529 -12.5713
421 Zr 1 0 0.2 0.8 5.1529 -12.5713
423 Zr 1 0.1 0.2 0.9 5.1529 -12.5713
425 Zr 1 0.2 0.2 0.8 10.3058 -12.5713
853 N 2 0.1 0 0.8 5.1529 -7.84865
854 N 2 0 0.1 0.8 10.3058 -7.84865
858 N 2 0.2 0.1 0.8 5.1529 -7.84865
873 N 2 0.1 0.2 0.8 5.1529 -7.84865
951 N 2 0 0 0.9 15.4587 -7.84865
952 N 2 0.1 0.1 0.9 5.1529 -7.84865