ITEM: TIMESTEP
903
ITEM: NUMBER OF ATOMS
1727
ITEM: BOX BOUNDS pp pp pp
0.0000000000000000e+00 2.7240000000000002e+01
0.0000000000000000e+00 2.7240000000000002e+01
0.0000000000000000e+00 2.7240000000000002e+01
ITEM: ATOMS id type element xs ys zs c_csym c_eng
2 1 Zr 0.0719665 0.0710175 0.982473 15.2217 -16.0852
3 1 Zr 0.085594 0.962189 0.114413 9.11174 -16.1781
4 1 Zr 0.994183 0.092866 0.0871638 6.72288 -13.5743
5 1 Zr 0.149261 -0.000687924 0.988399 6.79006 -13.698
6 1 Zr 0.149152 0.0785281 0.0846614 9.69326 -14.6107
7 1 Zr 0.968519 0.189144 0.990295 10.1332 -20.0225
8 1 Zr 0.0797384 0.125649 0.0405188 8.70123 -20.3054
9 1 Zr 0.14467 0.174651 0.0346919 5.47168 -15.4121
10 1 Zr -0.00122769 0.0475651 0.208793 7.19309 -19.8182
11 1 Zr 0.0931775 0.0949175 0.163445 9.12483 -14.0889
12 1 Zr 0.176825 0.015234 0.147059 9.61217 -18.1086
13 1 Zr 0.992602 0.173053 0.176196 7.26366 -13.6638
14 1 Zr 0.158253 0.16954 0.160844 9.60182 -15.7459
15 2 N 0.0687763 0.0140079 0.00255526 10.7377 -6.48361
16 2 N 0.993582 0.0777439 0.011949 9.49263 -5.06427
17 2 N 0.171425 0.0758157 0.000713815 10.1159 -4.91965
18 2 N 0.109211 0.191332 0.978395 6.7897 -5.99562
19 2 N 0.983864 0.0201598 0.0926497 7.93743 -5.45462
20 2 N 0.0824127 0.0992696 0.0877607 8.69779 -8.47368
21 2 N 0.0919875 0.0160767 0.145715 7.73495 -6.35402
22 2 N 0.0119256 0.0843827 0.168274 9.81351 -7.63948
23 2 N 0.150513 0.994351 0.0629819 6.59343 -5.35346
24 2 N 0.176908 0.0765578 0.187342 11.9817 -5.96188
25 2 N 5.30042e-05 0.180177 0.0955688 10.7529 -7.26027
26 2 N 0.0692101 0.18072 0.175596 8.80464 -5.71223
27 2 N 0.188276 0.133241 0.0850166 8.88448 -8.60331
28 1 Zr 0.258151 0.0851517 0.0036944 11.896 -14.8269
29 1 Zr 0.24088 0.979744 0.11213 10.3942 -18.8772
30 1 Zr 0.30654 0.00298539 0.0132555 11.0837 -13.8741
31 1 Zr 0.337314 0.0619922 0.0851835 4.82304 -13.7674
32 1 Zr 0.238346 0.14295 0.0655104 12.2763 -19.3436
33 1 Zr 0.333175 0.15523 0.995066 7.0779 -14.0074
34 1 Zr 0.252436 0.0888349 0.191655 6.8422 -14.1386
35 1 Zr 0.319035 0.98263 0.154296 10.9686 -14.6773
36 1 Zr 0.289299 0.150342 0.129892 7.60503 -15.7415
37 2 N 0.232746 0.984068 0.996425 7.72107 -5.13809
38 2 N 0.333719 0.0747 0.990174 6.68263 -6.00521
39 2 N 0.26082 0.157611 0.970676 9.73677 -5.75585
40 2 N 0.258187 0.0519635 0.0926295 10.8459 -5.10141
41 2 N 0.255412 0.0136188 0.198551 8.83248 -5.80888
42 2 N 0.337934 0.986907 0.0737283 9.93957 -7.55303
43 2 N 0.33793 0.0762663 0.166972 8.47556 -5.33423
44 2 N 0.225493 0.167787 0.180732 11.7382 -5.54831
45 2 N 0.341046 0.139212 0.0800993 10.7754 -5.68052
46 1 Zr 0.415643 0.0642934 0.991031 4.71643 -14.239
47 1 Zr 0.389434 0.986662 0.0368452 6.86441 -16.3083
48 1 Zr 0.493833 0.00168595 0.00893027 5.64691 -13.7649
49 1 Zr 0.602449 0.0723903 0.017842 10.4692 -13.7416
50 1 Zr 0.573625 0.99792 0.092236 11.0728 -13.9178
51 1 Zr 0.511445 0.0646834 0.0623076 10.294 -15.7449
52 1 Zr 0.384223 0.206374 0.0542968 7.84839 -20.8853
53 1 Zr 0.500385 0.178424 0.972385 4.4111 -16.1516
54 1 Zr 0.614754 0.20604 0.0562743 9.21952 -21.7606
55 1 Zr 0.419123 0.0816083 0.152708 4.63998 -13.6658
56 1 Zr 0.497414 0.00125407 0.161518 6.94644 -13.6826
57 1 Zr 0.592181 0.0884272 0.16192 7.98992 -13.7642
58 1 Zr 0.504052 0.133372 0.102306 8.47172 -19.1635
59 2 N 0.433847 0.9868 0.963886 7.96551 -6.19144
60 2 N 0.581923 0.00993065 0.975539 13.193 -5.87703
61 2 N 0.495312 0.0680348 0.00615076 10.6861 -7.97745
62 2 N 0.415712 0.138214 0.000536093 7.87626 -5.19018
63 2 N 0.590277 0.136198 0.993441 8.96722 -5.13736
64 2 N 0.418543 0.0656059 0.0803013 4.53171 -5.37522
65 2 N 0.416696 0.00250907 0.160531 6.57388 -5.54873
66 2 N 0.489845 0.969745 0.0889481 9.008 -6.64428
67 2 N 0.588826 0.0839609 0.0840862 7.42184 -6.01785
68 2 N 0.577516 0.00744725 0.164445 6.84654 -5.78302
69 2 N 0.502827 0.0819053 0.156175 7.0404 -6.03732
70 2 N 0.408216 0.159353 0.16321 10.0229 -6.97848
71 2 N 0.505298 0.189375 0.0511364 8.98445 -5.42821
72 2 N 0.597775 0.170234 0.167099 10.4123 -7.68489
73 1 Zr 0.661884 0.00887698 0.975929 9.5681 -14.7766
74 1 Zr 0.781333 0.0388407 0.968399 9.17221 -17.0615
75 1 Zr 0.743143 1.00011 0.0783139 7.54365 -20.0498
76 1 Zr 0.695604 0.0659125 0.0612274 12.8943 -14.0538
77 1 Zr 0.67499 0.16111 0.00895725 7.54225 -15.0444
78 1 Zr 0.7578 0.173417 0.0761613 6.83082 -13.5671
79 1 Zr 0.684487 0.994044 0.14666 10.0907 -13.6015
80 1 Zr 0.69586 0.0973773 0.228877 8.75733 -16.1246
81 1 Zr 0.673476 0.157565 0.164531 6.96045 -14.1296
82 2 N 0.735371 0.0175036 0.939422 13.1665 -6.75114
83 2 N 0.684912 0.0876543 0.000783961 10.4407 -6.65071
84 2 N 0.75744 0.164346 0.996803 6.54553 -6.13295
85 2 N 0.644057 0.997261 0.0792723 7.40849 -5.70545
86 2 N 0.766104 0.0978652 0.0765698 8.89307 -5.36506
87 2 N 0.759363 0.00347092 0.129021 7.59274 -7.88737
88 2 N 0.664473 0.0669308 0.150992 9.43966 -5.5086
89 2 N 0.685343 0.156446 0.094467 9.94438 -5.72282
90 2 N 0.757839 0.171678 0.168419 6.8109 -5.76435
91 1 Zr 0.797483 0.991772 0.0288939 9.87178 -19.8867
92 1 Zr 0.919117 0.0760246 0.00376357 5.0398 -13.581
93 1 Zr 0.914763 0.987938 0.081507 8.71295 -13.6728
94 1 Zr 0.834664 0.0741787 0.0866732 8.40416 -13.6322
95 1 Zr 0.840572 0.176697 0.00797634 10.5066 -14.1791
96 1 Zr 0.917562 0.172455 0.0720329 4.96031 -14.1365
97 1 Zr 0.826038 0.00594362 0.171654 6.89366 -13.6443
98 1 Zr 0.927979 0.0964721 0.162795 5.32983 -13.7448
99 1 Zr 0.836745 0.15799 0.162735 7.42436 -13.8315
100 2 N 0.932163 0.993496 0.0107197 5.98565 -5.79822
101 2 N 0.843133 0.0986637 0.0136287 11.2911 -5.22008
102 2 N 0.93093 0.151052 0.989522 9.47314 -8.50791
103 2 N 0.843485 0.000517196 0.054484 5.55318 -8.34877
104 2 N 0.914088 0.0953622 0.0910775 7.12658 -6.09016
105 2 N 0.896408 0.0205411 0.162171 10.9689 -7.52904
106 2 N 0.816953 0.0860275 0.165209 6.93207 -5.88386
107 2 N 0.838591 0.173912 0.0855049 4.56571 -6.20415
108 2 N 0.913584 0.172733 0.158934 9.13526 -6.58835
109 1 Zr 0.111379 0.262185 0.00385366 5.6137 -13.2606
110 1 Zr 0.0225123 0.178604 0.0436108 8.32787 -16.6963
111 1 Zr 0.146611 0.224209 0.0980246 11.9191 -19.3663
112 1 Zr 0.980942 0.318012 0.007584 9.52763 -15.5689
113 1 Zr 0.0862713 0.331133 0.0741993 8.97121 -13.4971
114 1 Zr 0.180119 0.334684 0.988116 5.20534 -14.4148
115 1 Zr 0.0792246 0.259959 0.184198 6.21643 -15.0089
116 1 Zr 0.995524 0.327298 0.162798 8.35232 -13.4391
117 1 Zr 0.154236 0.313802 0.178706 9.75539 -15.6101
118 2 N 0.0388367 0.256393 0.00290195 7.6014 -5.03348
119 2 N 0.19568 0.248163 1.00063 11.9139 -5.8163
120 2 N 0.0966556 0.337866 0.000855769 5.44682 -5.65891
121 2 N 0.100337 0.253015 0.0997791 12.1608 -7.50747
122 2 N 0.992751 0.249646 0.173646 7.22719 -6.33461
123 2 N 0.158021 0.233332 0.206219 8.23473 -5.61171
124 2 N 0.00655765 0.309418 0.0925945 11.064 -5.05424
125 2 N 0.0679417 0.34568 0.160728 11.3741 -7.35116
126 2 N 0.164339 0.335617 0.0742844 10.4104 -5.83466
127 1 Zr 0.248735 0.215299 0.0256012 13.2422 -13.4438
128 1 Zr 0.331532 0.261116 0.0786636 7.78937 -19.6418
129 1 Zr 0.251268 0.340062 0.0859197 6.44232 -15.5874
130 1 Zr 0.343924 0.317451 0.0199451 13.381 -14.2103
131 1 Zr 0.204313 0.276182 0.124737 8.14229 -18.7178
132 1 Zr 0.347953 0.297051 0.151127 10.0564 -14.3709
133 2 N 0.317846 0.249166 0.980514 8.11014 -4.7644
134 2 N 0.258054 0.341928 0.0132804 6.16669 -5.79529
135 2 N 0.278035 0.249128 0.0770468 11.2326 -7.93294
136 2 N 0.322719 0.220235 0.168082 11.6936 -4.36805
137 2 N 0.270003 0.320241 0.176571 10.8221 -5.00951
138 2 N 0.33412 0.360337 0.0954189 6.55434 -5.52392
139 1 Zr 0.425326 0.218134 0.977215 7.4328 -19.0946
140 1 Zr 0.577408 0.212614 0.982703 8.10577 -18.6738
141 1 Zr 0.504378 0.254786 0.0819171 7.93968 -12.9418
142 1 Zr 0.425347 0.348984 0.0892912 6.99822 -13.5758
143 1 Zr 0.501054 0.355292 0.00783696 5.6758 -13.539
144 1 Zr 0.58211 0.352243 0.0930328 5.03076 -13.8242
145 1 Zr 0.430402 0.168853 0.1126 13.9515 -17.4479
146 1 Zr 0.574681 0.170767 0.115363 11.8141 -17.426
147 1 Zr 0.482214 0.348189 0.173421 9.80114 -14.1664
148 2 N 0.500645 0.279515 0.00608296 4.84365 -5.14637
149 2 N 0.40469 0.346843 0.0163864 9.81817 -6.68965
150 2 N 0.581322 0.343555 0.00370586 7.28376 -6.22281
151 2 N 0.430276 0.270902 0.0823371 8.53402 -5.09053
152 2 N 0.577419 0.276205 0.0937227 11.3855 -5.30241
153 2 N 0.498276 0.262494 0.163341 6.70585 -4.74375
154 2 N 0.403448 0.33107 0.164785 9.38603 -6.49596
155 2 N 0.501305 0.349118 0.0971736 4.74905 -5.65984
156 2 N 0.588115 0.343802 0.172229 11.0835 -6.17137
157 1 Zr 0.734622 0.238676 0.993485 9.83999 -14.3541
158 1 Zr 0.669209 0.262381 0.089029 9.41275 -15.8693
159 1 Zr 0.659983 0.345252 0.990828 7.32474 -13.7305
160 1 Zr 0.7384 0.330679 0.086538 6.81139 -13.7489
161 1 Zr 0.755694 0.253698 0.159282 7.82586 -14.2703
162 1 Zr 0.649525 0.321184 0.158671 12.8529 -14.6209
163 2 N 0.654463 0.269983 0.00135208 6.8565 -5.46053
164 2 N 0.738977 0.331506 0.00212138 6.21712 -5.48719
165 2 N 0.730187 0.251249 0.0782888 7.09877 -6.91606
166 2 N 0.676565 0.242788 0.176952 9.92277 -5.55868
167 2 N 0.661053 0.35012 0.0726689 7.73347 -6.09035
168 2 N 0.74044 0.333136 0.166613 5.49582 -5.67966
169 1 Zr 0.936315 0.253135 0.017502 10.8963 -17.0811
170 1 Zr 0.824432 0.254291 0.0858155 4.73051 -14.5634
171 1 Zr 0.824529 0.325759 0.986239 7.36839 -14.5241
172 1 Zr 0.887955 0.330489 0.0673397 7.29635 -13.5633
173 1 Zr 0.916778 0.251982 0.157609 6.1514 -13.7644
174 1 Zr 0.84568 0.334511 0.157324 6.42601 -13.5831
175 2 N 0.81364 0.254381 0.00609903 8.13463 -6.15635
176 2 N 0.895487 0.347152 0.996449 9.34308 -6.02487
177 2 N 0.905809 0.249252 0.0654697 12.4306 -7.6028
178 2 N 0.833848 0.248954 0.166382 4.06676 -5.93553
179 2 N 0.812616 0.336841 0.0793372 6.60329 -6.18469
180 2 N 0.913475 0.3237 0.139515 6.83523 -6.27757
181 1 Zr 0.0898738 0.476694 0.995734 9.02978 -18.9834
182 1 Zr 0.980705 0.389725 0.0622531 9.91441 -13.8452
183 1 Zr 0.153589 0.407162 0.0841929 6.94985 -14.0695
184 1 Zr 0.00721255 0.515601 0.993356 6.61695 -13.3669
185 1 Zr 0.0978983 0.582806 0.00510406 9.31019 -13.7508
186 1 Zr 0.0555955 0.487626 0.0714636 9.41755 -14.2506
187 1 Zr 0.0168754 0.605612 0.059229 9.57874 -13.9374
188 1 Zr 0.162487 0.462514 6.84457e-05 6.28689 -19.9383
189 1 Zr 0.158935 0.575727 0.0956389 7.21148 -14.7592
190 1 Zr 0.0757437 0.380616 0.20594 8.6377 -19.3548
191 1 Zr 0.0055013 0.503428 0.18514 6.81421 -12.7226
192 1 Zr 0.0810879 0.617928 0.201286 9.30859 -19.6884
193 1 Zr 0.11932 0.492174 0.14959 13.2191 -14.2569
194 2 N 0.980187 0.447525 0.0236798 8.78886 -5.68557
195 2 N 0.174066 0.411307 0.996142 6.49839 -8.80394
196 2 N 0.0805832 0.520513 0.965336 10.4286 -9.94672
197 2 N 0.981611 0.584534 0.98166 11.395 -5.76101
198 2 N 0.175288 0.584945 0.997381 8.82894 -5.52325
199 2 N 0.0688233 0.40587 0.0679678 7.90345 -5.16601
200 2 N 0.987737 0.403915 0.133471 8.11794 -4.49426
201 2 N 0.179047 0.39253 0.155865 12.7915 -7.49601
202 2 N 0.00190071 0.533183 0.062784 10.608 -7.77435
203 2 N 0.0882785 0.588499 0.0777771 6.99626 -6.11711
204 2 N 0.0597682 0.494497 0.162386 5.87622 -7.81506
205 2 N 0.00546124 0.599536 0.137223 6.10771 -5.05057
206 2 N 0.131161 0.488665 0.0931246 8.9869 -7.60318
207 2 N 0.184022 0.59043 0.160234 10.2222 -8.01696
208 1 Zr 0.250133 0.422919 0.99514 6.27014 -13.7166
209 1 Zr 0.353475 0.430946 0.0990918 8.26967 -14.0617
210 1 Zr 0.256471 0.5832 0.000461901 8.5502 -13.7288
211 1 Zr 0.202105 0.503043 0.0597837 6.48851 -15.4866
212 1 Zr 0.336047 0.504073 0.996693 8.33589 -13.4246
213 1 Zr 0.337243 0.572731 0.103355 6.36409 -13.4317
214 1 Zr 0.256878 0.412478 0.152777 8.42693 -15.1639
215 1 Zr 0.254025 0.574567 0.169425 10.9797 -14.2801
216 1 Zr 0.301899 0.495021 0.138109 6.84311 -15.6672
217 2 N 0.332997 0.425534 0.0129806 4.69679 -5.40829
218 2 N 0.260756 0.502749 0.00336073 6.67304 -6.03585
219 2 N 0.337501 0.584544 0.0112011 5.63015 -5.58267
220 2 N 0.240522 0.426644 0.0726325 8.99657 -5.44479
221 2 N 0.330711 0.420001 0.181825 8.88807 -5.87024
222 2 N 0.255288 0.575554 0.0803603 5.98999 -5.59223
223 2 N 0.222752 0.491152 0.162415 8.36363 -5.09053
224 2 N 0.334584 0.500351 0.0860905 10.4773 -7.56812
225 2 N 0.336225 0.583519 0.17798 5.3837 -5.92596
226 1 Zr 0.417028 0.421246 0.0198232 5.67928 -13.9664
227 1 Zr 0.578102 0.419402 0.0101041 6.30343 -13.6447
228 1 Zr 0.512753 0.461339 0.112858 7.6943 -14.7224
229 1 Zr 0.421566 0.581247 0.0115179 7.22487 -13.7427
230 1 Zr 0.4103 0.510381 0.0827065 8.96365 -13.9014
231 1 Zr 0.493514 0.508026 0.99294 7.099 -13.7496
232 1 Zr 0.571181 0.573947 0.0124406 9.52147 -13.6496
233 1 Zr 0.602949 0.504093 0.0725069 9.19012 -14.5057
234 1 Zr 0.500201 0.557213 0.131547 6.88345 -15.9494
235 1 Zr 0.410043 0.413355 0.176164 8.81969 -16.3398
236 1 Zr 0.586651 0.421953 0.166462 5.17616 -13.4165
237 1 Zr 0.407537 0.590528 0.170685 9.80997 -13.1269
238 1 Zr 0.505733 0.495996 0.192525 9.15805 -21.6161
239 1 Zr 0.587135 0.574985 0.180714 6.42614 -13.5213
240 2 N 0.496052 0.430824 0.00899222 4.9995 -5.55367
241 2 N 0.415045 0.503445 0.00262304 6.25983 -6.34143
242 2 N 0.57794 0.495703 0.99929 6.73175 -6.7556
243 2 N 0.496816 0.588261 0.997111 6.27743 -5.73138
244 2 N 0.435878 0.432463 0.0943002 9.39044 -6.07238
245 2 N 0.570895 0.433484 0.0901276 10.1616 -6.8286
246 2 N 0.518239 0.413795 0.193213 9.49698 -5.48293
247 2 N 0.432818 0.586727 0.0978856 10.5688 -6.12659
248 2 N 0.405711 0.511824 0.164481 11.5568 -4.84894
249 2 N 0.496613 0.513092 0.0692051 9.55925 -5.98542
250 2 N 0.565821 0.573239 0.105203 9.06689 -6.20152
251 2 N 0.609326 0.504594 0.166518 8.48714 -5.79432
252 2 N 0.512974 0.573633 0.223921 12.7466 -4.65551
253 1 Zr 0.734475 0.415191 0.985138 9.42462 -13.8475
254 1 Zr 0.658481 0.425057 0.0854575 6.29095 -13.9178
255 1 Zr 0.646397 0.509952 0.981728 13.5969 -13.9832
256 1 Zr 0.74932 0.575837 0.000795641 7.25329 -13.9609
257 1 Zr 0.755203 0.499593 0.080332 3.39574 -13.774
258 1 Zr 0.663155 0.575821 0.0933304 10.2305 -13.7083
259 1 Zr 0.751905 0.416188 0.164072 4.39898 -14.1829
260 1 Zr 0.688532 0.495832 0.160212 6.69401 -13.9674
261 1 Zr 0.752794 0.588028 0.171712 4.70772 -14.0333
262 2 N 0.659101 0.428158 8.81429e-05 6.5411 -5.88634
263 2 N 0.741073 0.496915 0.00278837 6.45953 -5.84594
264 2 N 0.669327 0.576453 0.0106029 7.81379 -5.59738
265 2 N 0.741552 0.417917 0.0828074 3.73052 -5.78256
266 2 N 0.673118 0.41569 0.165102 4.55531 -6.02219
267 2 N 0.674331 0.501372 0.0851925 6.48608 -6.66492
268 2 N 0.747286 0.579969 0.0868462 7.39909 -6.12181
269 2 N 0.770666 0.503692 0.161773 4.73682 -5.64123
270 2 N 0.674684 0.593584 0.167783 4.15218 -5.81365
271 1 Zr 0.945128 0.414731 0.961855 8.30653 -12.8623
272 1 Zr 0.82309 0.422727 0.0742041 5.42716 -14.0272
273 1 Zr 0.8239 0.49462 0.989234 8.17761 -14.2797
274 1 Zr 0.903163 0.546438 0.983123 9.71606 -17.7709
275 1 Zr 0.942273 0.530821 0.0604784 6.03292 -17.3531
276 1 Zr 0.827904 0.591848 0.0798775 8.49039 -13.8081
277 1 Zr 0.941401 0.392634 0.202218 6.1622 -21.3243
278 1 Zr 0.892015 0.508053 0.126484 8.72746 -18.6544
279 1 Zr 0.93258 0.619689 0.201245 10.1199 -19.5191
280 2 N 0.807202 0.412931 1.00236 8.77539 -5.48521
281 2 N 0.894117 0.464703 0.980664 10.271 -4.8924
282 2 N 0.826055 0.587821 0.00183067 9.83706 -6.0501
283 2 N 0.905375 0.408958 0.0781065 9.77936 -5.43599
284 2 N 0.830238 0.410295 0.15818 10.9062 -7.253
285 2 N 0.834864 0.504275 0.073444 8.66516 -5.77298
286 2 N 0.902627 0.598156 0.0870042 9.26383 -5.39802
287 2 N 0.954544 0.496743 0.159322 11.5774 -6.80574
288 2 N 0.828128 0.598156 0.160327 10.6118 -6.90315
289 1 Zr 0.998441 0.664684 0.987064 6.87323 -19.4321
290 1 Zr 0.0815598 0.735361 0.00886505 10.5301 -13.4887
291 1 Zr 0.0957251 0.670384 0.0840091 6.39665 -13.7495
292 1 Zr 0.989181 0.757413 0.0816396 8.46626 -13.6785
293 1 Zr 0.182101 0.671149 1.00148 4.61624 -14.0003
294 1 Zr 0.182729 0.737573 0.0947305 7.87764 -14.0098
295 1 Zr 0.00691338 0.66843 0.163275 7.81811 -13.1343
296 1 Zr 0.0840801 0.739723 0.180943 10.1392 -14.5975
297 1 Zr 0.156431 0.671116 0.167293 7.7115 -14.4424
298 2 N 0.10624 0.661871 0.00860358 7.14714 -6.23352
299 2 N 0.0109411 0.754238 0.0072117 9.19783 -7.84704
300 2 N 0.182053 0.758729 0.998724 6.25604 -7.414
301 2 N 0.00817865 0.685383 0.0805556 6.62912 -5.94331
302 2 N 0.100857 0.746312 0.0996392 10.6522 -5.8038
303 2 N 0.0824709 0.657887 0.160069 8.09233 -8.15601
304 2 N 0.00797392 0.752451 0.157365 8.51664 -5.97096
305 2 N 0.181712 0.657351 0.0793203 7.59477 -5.88688
306 2 N 0.179779 0.752892 0.171929 6.3238 -5.77177
307 1 Zr 0.235773 0.781417 0.99037 10.3094 -16.7082
308 1 Zr 0.264137 0.655611 0.0885634 6.61815 -13.6977
309 1 Zr 0.344892 0.68069 0.0182593 11.674 -14.2088
310 1 Zr 0.33142 0.733704 0.0845763 7.33587 -19.5999
311 1 Zr 0.2561 0.746508 0.16882 8.95827 -13.76
312 1 Zr 0.368 0.70371 0.155226 9.51347 -14.2012
313 2 N 0.262828 0.662464 0.00901114 7.93704 -5.94302
314 2 N 0.322358 0.745758 0.984488 10.0104 -5.1186
315 2 N 0.277125 0.739783 0.0939552 12.2213 -8.76296
316 2 N 0.261152 0.663428 0.163599 6.77043 -5.38052
317 2 N 0.344777 0.645357 0.101651 8.01794 -6.03417
318 2 N 0.33401 0.769982 0.177913 10.3273 -6.21917
319 1 Zr 0.401738 0.784309 0.993365 7.18211 -19.4863
320 1 Zr 0.424364 0.661675 0.0817938 8.02165 -13.3323
321 1 Zr 0.510941 0.665268 0.99343 9.38268 -14.0852
322 1 Zr 0.591621 0.778962 0.996389 8.64723 -16.9246
323 1 Zr 0.589112 0.645672 0.0917472 6.95332 -13.3443
324 1 Zr 0.517139 0.739269 0.0726978 8.51136 -13.1855
325 1 Zr 0.423457 0.81835 0.121201 9.27675 -17.3704
326 1 Zr 0.495224 0.644302 0.162052 10.3733 -14.9177
327 1 Zr 0.569274 0.825493 0.12603 8.88977 -17.12
328 2 N 0.414895 0.660773 0.00305302 7.38191 -5.91997
329 2 N 0.586623 0.647774 0.00603528 5.00887 -5.84302
330 2 N 0.544911 0.740915 0.991374 4.56131 -6.73511
331 2 N 0.439236 0.739112 0.0822726 7.57118 -5.08524
332 2 N 0.43204 0.670469 0.160619 3.68822 -6.5254
333 2 N 0.505945 0.659239 0.0728357 8.05897 -5.59502
334 2 N 0.587322 0.720455 0.0865043 6.6303 -5.42341
335 2 N 0.582066 0.660483 0.170143 7.45616 -6.39962
336 2 N 0.517512 0.760918 0.153857 9.83871 -4.52092
337 1 Zr 0.662919 0.662904 0.00354171 7.64814 -13.6759
338 1 Zr 0.754922 0.779884 0.0083472 7.57686 -16.4082
339 1 Zr 0.750543 0.658973 0.0935095 7.29909 -13.7976
340 1 Zr 0.674818 0.738371 0.100395 9.34006 -16.0603
341 1 Zr 0.644468 0.683917 0.167446 11.3429 -15.1801
342 1 Zr 0.758701 0.754141 0.168397 7.92612 -14.1113
343 2 N 0.746562 0.660314 0.00928875 4.5246 -5.60809
344 2 N 0.67361 0.739553 9.87496e-05 12.3045 -5.00446
345 2 N 0.667589 0.652136 0.0832037 6.47686 -6.10336
346 2 N 0.737032 0.740318 0.0918379 10.5732 -6.6577
347 2 N 0.750682 0.671087 0.169403 7.49726 -5.53066
348 2 N 0.668052 0.775881 0.180639 13.1345 -5.63684
349 1 Zr 0.827839 0.672803 0.00422747 5.95025 -13.7922
350 1 Zr 0.932076 0.732504 0.998516 7.63292 -14.1988
351 1 Zr 0.927475 0.667537 0.0827412 8.72109 -13.3952
352 1 Zr 0.830276 0.753638 0.0967685 7.7656 -14.1555
353 1 Zr 0.855863 0.678741 0.16906 9.8239 -14.3323
354 1 Zr 0.928444 0.747826 0.179908 8.62449 -15.7055
355 2 N 0.89769 0.663298 0.0126753 7.83321 -5.86075
356 2 N 0.808437 0.749516 0.0117655 7.94549 -6.99419
357 2 N 0.82886 0.678742 0.0897015 4.30878 -5.89129
358 2 N 0.908268 0.743464 0.100692 7.71364 -6.18223
359 2 N 0.933064 0.660392 0.16101 7.59633 -7.99512
360 2 N 0.837314 0.763557 0.176287 4.03519 -5.6957
361 1 Zr 0.994845 0.853491 0.0333192 7.45563 -15.8141
362 1 Zr 0.0756678 0.92439 0.00297334 6.92631 -12.8421
363 1 Zr 0.0710422 0.811255 0.0690204 13.071 -13.7098
364 1 Zr 0.0132857 0.94538 0.0866259 12.2319 -16.8661
365 1 Zr 0.163155 0.830781 0.0131419 6.54455 -13.74
366 1 Zr 0.13445 0.899601 0.0978313 11.513 -19.4393
367 1 Zr 0.976406 0.874462 0.182577 9.86687 -17.3047
368 1 Zr 0.126807 0.968718 0.204597 6.49385 -18.6576
369 1 Zr 0.146809 0.846442 0.161189 11.7138 -14.164
370 2 N 0.0937569 0.806671 0.999323 8.64051 -5.93076
371 2 N 0.00832315 0.927276 0.0331405 10.7496 -8.05193
372 2 N 0.150053 0.917369 0.986703 8.83448 -5.62594
373 2 N 0.00204021 0.83539 0.0923834 7.4989 -6.6239
374 2 N 0.0927269 0.87949 0.0626972 8.05458 -7.35398
375 2 N 0.0897311 0.818823 0.179266 10.4791 -5.56384
376 2 N 0.0574784 0.93288 0.183468 7.5071 -4.92931
377 2 N 0.181632 0.810676 0.0883416 10.7991 -5.28744
378 2 N 0.191391 0.909627 0.179268 8.42689 -5.21222
379 1 Zr 0.207356 0.917293 0.0604725 12.5763 -16.4456
380 1 Zr 0.275367 0.79781 0.0629851 7.74586 -14.306
381 1 Zr 0.322786 0.863677 0.996346 9.13776 -12.8276
382 1 Zr 0.339339 0.906889 0.078588 8.15382 -13.4597
383 1 Zr 0.267879 0.900637 0.190184 9.74266 -13.496
384 1 Zr 0.325974 0.83175 0.147664 9.09605 -14.0364
385 2 N 0.241482 0.872145 0.0183574 8.67916 -5.4806
386 2 N 0.321428 0.935619 0.983763 8.64992 -5.43822
387 2 N 0.270158 0.899976 0.114204 9.60954 -5.70549
388 2 N 0.253576 0.826954 0.180906 6.97039 -5.78471
389 2 N 0.329337 0.83809 0.0642664 7.88761 -9.81509
390 2 N 0.340798 0.927024 0.182911 9.39786 -6.35128
391 1 Zr 0.431464 0.915 0.00512337 10.4049 -17.7536
392 1 Zr 0.366696 0.79861 0.0655918 10.5267 -19.8457
393 1 Zr 0.478968 0.800951 0.996469 8.83533 -12.9954
394 1 Zr 0.600046 0.935072 0.00758538 10.6323 -13.0317
395 1 Zr 0.626508 0.801704 0.0719705 7.8621 -19.4815
396 1 Zr 0.482011 0.915824 0.0634031 12.6161 -15.4848
397 1 Zr 0.422432 0.919112 0.172541 8.04789 -13.6361
398 1 Zr 0.49415 0.845743 0.0951104 12.4482 -18.939
399 1 Zr 0.593768 0.931963 0.171434 6.48563 -13.8344
400 2 N 0.40123 0.869435 0.000876909 9.31271 -7.40993
401 2 N 0.602292 0.864127 0.00221992 7.93832 -5.24833
402 2 N 0.528661 0.92482 1.00184 7.06195 -5.728
403 2 N 0.406 0.916846 0.102787 9.658 -5.72955
404 2 N 0.403911 0.841889 0.169309 9.65681 -7.46223
405 2 N 0.506219 0.812346 0.0492041 7.50602 -8.11339
406 2 N 0.586194 0.918147 0.0860947 10.0448 -4.67923
407 2 N 0.59025 0.850694 0.173267 9.65412 -7.00047
408 2 N 0.513883 0.924426 0.183035 10.2595 -6.73632
409 1 Zr 0.673802 0.869109 0.999409 8.41099 -13.1737
410 1 Zr 0.791496 0.916904 0.983025 8.8648 -16.0272
411 1 Zr 0.748839 0.831243 0.0822384 9.39955 -14.5962
412 1 Zr 0.693065 0.941819 0.0557043 10.9164 -13.7709
413 1 Zr 0.67433 0.836227 0.146084 10.5922 -14.5167
414 1 Zr 0.749438 0.908797 0.178552 8.83209 -13.9528
415 2 N 0.761819 0.868032 0.00702545 7.60164 -6.36145
416 2 N 0.68574 0.942194 0.991403 6.88081 -7.19978
417 2 N 0.667477 0.84183 0.0674987 7.60349 -7.58679
418 2 N 0.747195 0.90453 0.101257 10.8171 -5.22913
419 2 N 0.757585 0.8334 0.174753 5.33756 -6.28704
420 2 N 0.672955 0.91638 0.172254 9.06335 -6.01098
421 1 Zr 0.845145 0.828913 0.00631778 11.7097 -13.8761
422 1 Zr 0.933582 0.915759 0.0066255 8.93406 -14.03
423 1 Zr 0.908551 0.814686 0.112 10.0011 -14.2238
424 1 Zr 0.837782 0.922058 0.0868082 8.17758 -13.7315
425 1 Zr 0.841784 0.85512 0.171111 10.2953 -14.5103
426 1 Zr 0.957251 0.929963 0.136092 4.83541 -20.5691
427 2 N 0.91467 0.81417 0.0352564 7.73712 -5.37477
428 2 N 0.865495 0.90352 0.0229665 8.04467 -6.0915
429 2 N 0.831596 0.837965 0.0959419 5.32268 -5.98115
430 2 N 0.912989 0.91595 0.11035 11.9704 -8.22533
431 2 N 0.935322 0.835985 0.190702 14.4521 -8.30389
432 2 N 0.822997 0.926296 0.167502 9.0967 -6.36088
433 1 Zr 0.0694091 0.0135778 0.244756 11.9907 -16.4563
434 1 Zr 0.948375 0.0937559 0.256426 11.0205 -16.7473
435 1 Zr 0.173547 0.0898853 0.261905 4.98795 -13.7245
436 1 Zr 0.0970174 0.186701 0.248977 10.6025 -14.1461
437 1 Zr 0.997384 0.00402162 0.325893 8.14843 -15.7734
438 1 Zr 0.0885084 0.0959938 0.332577 7.99897 -13.1577
439 1 Zr 0.149496 0.997934 0.336504 8.28686 -12.4965
440 1 Zr 0.980378 0.160718 0.332476 9.33759 -14.0839
441 1 Zr 0.173765 0.146132 0.34526 8.47338 -13.2509
442 2 N 0.00469259 0.969164 0.269446 8.35579 -6.07548
443 2 N 0.0874527 0.103178 0.246456 8.34924 -5.24002
444 2 N 0.0827468 0.0162738 0.3037 8.55848 -7.01494
445 2 N 0.0183555 0.092547 0.326109 5.63799 -5.79396
446 2 N 0.179514 0.0140098 0.267336 9.56705 -5.71157
447 2 N 0.162047 0.0759115 0.349433 8.28706 -8.4887
448 2 N 0.980836 0.158283 0.256439 11.4928 -5.82979
449 2 N 0.0744546 0.17923 0.322718 7.95492 -5.53168
450 2 N 0.166699 0.165956 0.276999 6.7705 -6.66335
451 1 Zr 0.254706 0.981551 0.262264 8.66089 -13.5975
452 1 Zr 0.341664 0.0771775 0.25464 7.07527 -13.7728
453 1 Zr 0.256982 0.16557 0.259014 8.04058 -14.083
454 1 Zr 0.273057 0.0866244 0.330777 6.26458 -16.9395
455 1 Zr 0.342478 0.0147322 0.34242 8.79049 -13.5621
456 1 Zr 0.321554 0.160341 0.356099 11.0358 -14.5261
457 2 N 0.256872 0.0881792 0.270416 5.33404 -6.97537
458 2 N 0.264947 -0.00188865 0.338253 12.5474 -5.40167
459 2 N 0.338776 0.998852 0.259406 6.44228 -5.84394
460 2 N 0.366213 0.0911134 0.335214 6.5832 -5.52504
461 2 N 0.241851 0.177327 0.337707 10.6244 -5.70139
462 2 N 0.332711 0.153434 0.245358 6.4185 -5.54682
463 1 Zr 0.418372 0.99465 0.240954 10.0271 -13.7918
464 1 Zr 0.630383 0.996033 0.283211 10.6184 -17.0305
465 1 Zr 0.497309 0.0953907 0.232643 7.254 -12.7721
466 1 Zr 0.420294 0.170192 0.238572 4.63217 -13.474
467 1 Zr 0.582004 0.180707 0.244706 5.98411 -13.9183
468 1 Zr 0.423517 0.124711 0.378628 8.35344 -17.8167
469 1 Zr 0.507195 0.967102 0.302 9.2195 -15.0605
470 1 Zr 0.569152 0.0967772 0.358319 8.2758 -15.0547
471 1 Zr 0.507229 0.168103 0.307869 7.72203 -13.5316
472 2 N 0.41593 0.0816194 0.241194 2.05259 -5.57012
473 2 N 0.426428 1.00029 0.316394 10.9567 -4.80301
474 2 N 0.50128 0.0157448 0.241484 7.18168 -5.41962
475 2 N 0.580867 0.0925036 0.241675 12.5794 -7.37494
476 2 N 0.560295 0.994021 0.335404 9.95606 -5.28643
477 2 N 0.497697 0.0942998 0.30509 6.02597 -5.64805
478 2 N 0.426893 0.168948 0.31381 7.5916 -5.7989
479 2 N 0.501451 0.173646 0.21659 5.71227 -5.6212
480 2 N 0.584013 0.17048 0.318599 7.58593 -5.94928
481 1 Zr 0.76507 0.00498919 0.25898 9.19231 -14.3574
482 1 Zr 0.629205 0.0709163 0.261317 9.69223 -17.1358
483 1 Zr 0.744247 0.183182 0.242019 7.25017 -13.8719
484 1 Zr 0.675281 0.974873 0.346332 14.4442 -16.8037
485 1 Zr 0.730788 0.103099 0.328199 9.3872 -16.1267
486 1 Zr 0.687884 0.171138 0.361163 8.45687 -14.761
487 2 N 0.708139 0.005597 0.218583 7.13296 -5.38892
488 2 N 0.741014 0.10647 0.267345 10.7653 -8.1327
489 2 N 0.739267 0.0182841 0.319147 8.12211 -5.67284
490 2 N 0.647626 0.0804659 0.342225 9.21925 -5.34311
491 2 N 0.662051 0.178772 0.254469 8.58436 -5.54709
492 2 N 0.762481 0.190548 0.328293 10.7176 -5.7844
493 1 Zr 0.944855 0.994396 0.17858 15.0758 -16.7887
494 1 Zr 0.816756 0.0847877 0.239628 8.30448 -14.2125
495 1 Zr 0.902581 0.182446 0.235271 8.18621 -14.2927
496 1 Zr 0.870313 0.0100398 0.31848 8.6472 -13.8652
497 1 Zr 0.937598 0.0641185 0.327796 7.44045 -18.8816
498 1 Zr 0.829737 0.158699 0.32646 7.84969 -13.616
499 2 N 0.843833 0.00934602 0.248892 5.63689 -6.26402
500 2 N 0.894857 0.102215 0.232141 11.1387 -7.20729
501 2 N 0.933503 0.963929 0.332923 6.64082 -6.78408
502 2 N 0.835321 0.0792409 0.327327 9.40883 -7.38398
503 2 N 0.825903 0.178645 0.248237 4.36436 -6.14004
504 2 N 0.900036 0.189028 0.320408 11.163 -5.74179
505 1 Zr 0.000812159 0.270571 0.24469 8.25563 -13.8293
506 1 Zr 0.179692 0.234536 0.283042 12.2192 -13.8488
507 1 Zr 0.0959419 0.32883 0.266087 10.2316 -16.6936
508 1 Zr 0.0681506 0.25077 0.349612 8.38902 -13.6983
509 1 Zr 0.99108 0.330324 0.351422 7.27624 -13.3976
510 1 Zr 0.156747 0.34864 0.32847 11.1562 -14.23
511 2 N 0.0742712 0.272796 0.266718 11.3698 -7.13777
512 2 N 0.988181 0.245098 0.320917 8.10448 -5.6885
513 2 N 0.14457 0.256477 0.347476 11.4394 -5.46619
514 2 N 0.998274 0.343342 0.274151 11.3231 -5.20308
515 2 N 0.0702336 0.33597 0.352029 4.49239 -5.80327
516 2 N 0.179854 0.327537 0.232464 6.93785 -6.2039
517 1 Zr 0.335703 0.230259 0.244262 5.66738 -13.5603
518 1 Zr 0.254765 0.333171 0.252267 6.96912 -13.6622
519 1 Zr 0.258412 0.258152 0.351151 12.1974 -15.1837
520 1 Zr 0.327389 0.312852 0.32779 9.15248 -15.6959
521 2 N 0.251407 0.247153 0.254433 9.40069 -5.38618
522 2 N 0.334915 0.221267 0.320172 9.23129 -6.00004
523 2 N 0.224671 0.330049 0.332624 6.56223 -6.01617
524 2 N 0.330656 0.318287 0.261159 7.20618 -6.07922
525 1 Zr 0.490115 0.248 0.238951 4.46468 -13.5594
526 1 Zr 0.406996 0.31557 0.245939 6.38212 -12.9605
527 1 Zr 0.574337 0.343035 0.254872 9.5326 -15.0393
528 1 Zr 0.411259 0.244748 0.31875 7.91112 -13.4485
529 1 Zr 0.579084 0.247985 0.322074 3.93583 -13.7543
530 1 Zr 0.495912 0.336111 0.330429 8.4861 -14.1569
531 2 N 0.411612 0.241999 0.22117 6.79256 -5.98399
532 2 N 0.583581 0.26493 0.244279 7.10655 -5.50297
533 2 N 0.498699 0.250443 0.314667 9.39294 -5.68913
534 2 N 0.417844 0.320325 0.322721 6.81335 -5.81117
535 2 N 0.502395 0.328047 0.245032 7.28547 -5.86004
536 2 N 0.586762 0.321182 0.350475 7.14854 -7.16435
537 1 Zr 0.669518 0.2535 0.253884 10.1807 -13.8598
538 1 Zr 0.750705 0.343819 0.244679 7.08354 -13.7124
539 1 Zr 0.746476 0.265834 0.330988 9.82427 -13.6842
540 1 Zr 0.668718 0.331276 0.326938 3.96138 -14.3672
541 2 N 0.753181 0.261615 0.247606 3.8378 -5.98434
542 2 N 0.660668 0.244692 0.334263 10.3595 -5.69652
543 2 N 0.665832 0.340291 0.247164 8.88432 -5.62167
544 2 N 0.746953 0.346747 0.327496 6.93733 -6.06248
545 1 Zr 0.838368 0.254031 0.25257 7.86436 -14.2973
546 1 Zr 0.908426 0.340767 0.254055 9.76156 -16.452
547 1 Zr 0.91313 0.267319 0.323049 6.97094 -13.8853
548 1 Zr 0.83678 0.364705 0.30527 11.6039 -14.7134
549 2 N 0.916107 0.282062 0.238722 8.46743 -6.88836
550 2 N 0.830253 0.273923 0.328039 5.45766 -5.51368
551 2 N 0.822752 0.336893 0.226981 9.64158 -5.99465
552 2 N 0.91228 0.343341 0.343217 4.30158 -6.23323
553 1 Zr 0.00825114 0.430399 0.225752 7.47095 -19.0312
554 1 Zr 0.14043 0.422934 0.184839 10.1528 -17.2731
555 1 Zr 0.0850307 0.496331 0.242764 7.00069 -13.1965
556 1 Zr 0.00711479 0.578239 0.216327 7.8791 -19.1109
557 1 Zr 0.139162 0.564162 0.184275 12.6742 -16.9126
558 1 Zr 0.087665 0.416166 0.340506 7.03479 -13.5718
559 1 Zr 0.997709 0.488489 0.347253 7.05706 -13.6368
560 1 Zr 0.0888554 0.571751 0.346033 8.39227 -13.4654
561 1 Zr 0.156772 0.494097 0.326396 10.1657 -13.3955
562 2 N 0.107934 0.434063 0.267771 9.71619 -5.71361
563 2 N 0.995851 0.410143 0.355798 8.37854 -5.91767
564 2 N 0.163007 0.414103 0.34912 5.36453 -5.92787
565 2 N 0.00656594 0.468962 0.272826 9.1444 -6.35299
566 2 N 0.0794835 0.562259 0.272547 7.58363 -5.5347