ITEM: TIMESTEP
26
ITEM: NUMBER OF ATOMS
63
ITEM: BOX BOUNDS pp pp pp
0.0000000000000000e+00 9.0800000000000001e+00
0.0000000000000000e+00 9.0800000000000001e+00
0.0000000000000000e+00 9.0800000000000001e+00
ITEM: ATOMS id type element xs ys zs c_csym c_eng
1 2 N 0.749802 0.749802 0.749802 14.7555 -6.06838
2 1 Zr 0.244385 0.244385 -5.12022e-17 9.22547 -14.3477
3 1 Zr 0.244385 -7.56071e-18 0.244385 9.22547 -14.3477
4 1 Zr 1.12974e-17 0.244385 0.244385 9.22547 -14.3477
5 1 Zr 0.5 -3.16562e-17 -3.16194e-17 4.93148 -14.3153
6 1 Zr 0.755615 0.244385 2.46848e-17 9.22547 -14.3477
7 1 Zr 0.755615 -1.06965e-16 0.244385 9.22547 -14.3477
8 1 Zr 0.5 0.249117 0.249117 10.0773 -14.3451
9 1 Zr 9.21206e-17 0.5 1.52232e-16 4.93148 -14.3153
10 1 Zr 0.244385 0.755615 4.26162e-17 9.22547 -14.3477
11 1 Zr 0.249117 0.5 0.249117 10.0773 -14.3451
12 1 Zr -8.69493e-17 0.755615 0.244385 9.22547 -14.3477
13 1 Zr 0.5 0.5 3.80358e-17 5.11689 -14.3212
14 1 Zr 0.755615 0.755615 1.33586e-18 9.22547 -14.3477
15 1 Zr 0.750883 0.5 0.249117 5.041 -14.3451
16 1 Zr 0.5 0.750883 0.249117 10.0773 -14.3451
17 1 Zr -1.45713e-17 3.88089e-17 0.5 5.28748e-29 -14.3153
18 1 Zr 0.249117 0.249117 0.5 10.0773 -14.3451
19 1 Zr 0.244385 -1.63236e-17 0.755615 9.22547 -14.3477
20 1 Zr 1.21778e-16 0.244385 0.755615 9.22547 -14.3477
21 1 Zr 0.5 1.03402e-16 0.5 5.11689 -14.3212
22 1 Zr 0.750883 0.249117 0.5 10.0773 -14.3451
23 1 Zr 0.755615 -3.8512e-17 0.755615 9.22547 -14.3477
24 1 Zr 0.5 0.249117 0.750883 5.041 -14.3451
25 1 Zr 8.61884e-17 0.5 0.5 5.11689 -14.3212
26 1 Zr 0.249117 0.750883 0.5 10.0773 -14.3451
27 1 Zr 0.249117 0.5 0.750883 5.041 -14.3451
28 1 Zr -7.34914e-17 0.755615 0.755615 9.22547 -14.3477
29 1 Zr 0.5 0.5 0.5 10.379 -14.3241
30 1 Zr 0.750883 0.750883 0.5 5.041 -14.3451
31 1 Zr 0.750883 0.5 0.750883 5.041 -14.3451
32 1 Zr 0.5 0.750883 0.750883 5.041 -14.3451
33 2 N 0.253881 -8.88415e-17 1.37913e-16 13.9236 -5.89814
34 2 N 2.68827e-17 0.253881 1.3071e-16 13.9236 -5.89814
35 2 N 0.746119 -4.51439e-17 6.22646e-17 13.9236 -5.89814
36 2 N 0.5 0.251072 1.14136e-16 4.86017 -6.00094
37 2 N 0.251072 0.5 -2.16893e-17 4.86017 -6.00094
38 2 N 5.27012e-17 0.746119 -3.8995e-17 13.9236 -5.89814
39 2 N 0.748928 0.5 -1.59185e-16 4.86017 -6.00094
40 2 N 0.5 0.748928 -3.64626e-17 4.86017 -6.00094
41 2 N 2.75443e-16 2.32453e-17 0.253881 13.9236 -5.89814
42 2 N 0.250198 0.250198 0.250198 14.7555 -6.06838
43 2 N 0.251072 7.26068e-17 0.5 4.86017 -6.00094
44 2 N 9.3843e-17 0.251072 0.5 4.86017 -6.00094
45 2 N 0.5 1.07849e-16 0.251072 4.86017 -6.00094
46 2 N 0.749802 0.250198 0.250198 14.7555 -6.06838
47 2 N 0.748928 2.43785e-16 0.5 4.86017 -6.00094
48 2 N 0.5 0.2505 0.5 5.0773 -6.04457
49 2 N -1.18184e-17 0.5 0.251072 4.86017 -6.00094
50 2 N 0.250198 0.749802 0.250198 9.84511 -6.06838
51 2 N 0.2505 0.5 0.5 5.0773 -6.04457
52 2 N 6.55566e-17 0.748928 0.5 4.86017 -6.00094
53 2 N 0.5 0.5 0.2505 5.0773 -6.04457
54 2 N 0.749802 0.749802 0.250198 14.7555 -6.06838
55 2 N 0.7495 0.5 0.5 5.0773 -6.04457
56 2 N 0.5 0.7495 0.5 5.0773 -6.04457
57 2 N 1.0697e-16 -8.39906e-17 0.746119 13.9236 -5.89814
58 2 N 0.250198 0.250198 0.749802 14.7555 -6.06838
59 2 N 0.5 5.43123e-17 0.748928 4.86017 -6.00094
60 2 N 0.749802 0.250198 0.749802 14.7555 -6.06838
61 2 N -2.253e-16 0.5 0.748928 4.86017 -6.00094
62 2 N 0.250198 0.749802 0.749802 9.84511 -6.06838
63 2 N 0.5 0.5 0.7495 5.0773 -6.04457
