ITEM: TIMESTEP
0
ITEM: NUMBER OF ATOMS
999
ITEM: BOX BOUNDS pp pp pp
0.0000000000000000e+00 2.2699999999999999e+01
0.0000000000000000e+00 2.2699999999999999e+01
0.0000000000000000e+00 2.2699999999999999e+01
ITEM: ATOMS id type element xs ys zs c_csym c_eng
2 1 Zr 0.1 0.1 2.77693e-18 5.1529 -13.1616
3 1 Zr 0.1 0 0.1 10.3058 -13.1616
4 1 Zr 0 0.1 0.1 10.3058 -13.1616
5 1 Zr 0.2 3.23975e-18 4.1654e-18 10.3058 -12.5713
6 1 Zr 0.2 0.1 0.1 10.3058 -12.5713
7 1 Zr 3.00834e-18 0.2 4.1654e-18 10.3058 -12.5713
8 1 Zr 0.1 0.2 0.1 10.3058 -12.5713
9 1 Zr 0.2 0.2 3.70258e-18 10.3058 -12.5713
10 1 Zr 2.0827e-18 3.00834e-18 0.2 10.3058 -12.5713
11 1 Zr 0.1 0.1 0.2 15.4587 -12.5713
12 1 Zr 0.2 0 0.2 15.4587 -12.5713
13 1 Zr 2.54552e-18 0.2 0.2 10.3058 -12.5713
14 1 Zr 0.2 0.2 0.2 15.4587 -12.5713
15 2 N 0.1 3.23975e-18 2.0827e-18 15.4587 -6.84394
16 2 N 3.70258e-18 0.1 1.61988e-18 15.4587 -6.84394
17 2 N 0.2 0.1 3.70258e-18 5.1529 -7.84865
18 2 N 0.1 0.2 5.55386e-18 10.3058 -7.84865
19 2 N 2.31411e-18 3.70258e-18 0.1 15.4587 -6.84394
20 2 N 0.1 0.1 0.1 5.1529 -7.84865
21 2 N 0.1 2.77693e-18 0.2 10.3058 -7.84865
22 2 N 1.85129e-18 0.1 0.2 5.1529 -7.84865
23 2 N 0.2 3.70258e-18 0.1 5.1529 -7.84865
24 2 N 0.2 0.1 0.2 10.3058 -7.84865
25 2 N 2.77693e-18 0.2 0.1 10.3058 -7.84865
26 2 N 0.1 0.2 0.2 15.4587 -7.84865
27 2 N 0.2 0.2 0.1 10.3058 -7.84865
28 1 Zr 0.3 0.1 4.62822e-18 15.4587 -12.5713
29 1 Zr 0.3 3.23975e-18 0.1 15.4587 -12.5713
30 1 Zr 0.4 6.94233e-18 6.94233e-18 15.4587 -12.5713
31 1 Zr 0.4 0.1 0.1 5.1529 -12.5713
32 1 Zr 0.3 0.2 0.1 15.4587 -12.5713
33 1 Zr 0.4 0.2 6.47951e-18 5.1529 -12.5713
34 1 Zr 0.3 0.1 0.2 10.3058 -12.5713
35 1 Zr 0.4 3.70258e-18 0.2 5.1529 -12.5713
36 1 Zr 0.4 0.2 0.2 10.3058 -12.5713
37 2 N 0.3 2.77693e-18 3.23975e-18 10.3058 -7.84865
38 2 N 0.4 0.1 1.85129e-18 10.3058 -7.84865
39 2 N 0.3 0.2 2.77693e-18 10.3058 -7.84865
40 2 N 0.3 0.1 0.1 15.4587 -7.84865
41 2 N 0.3 3.23975e-18 0.2 15.4587 -7.84865
42 2 N 0.4 0 0.1 10.3058 -7.84865
43 2 N 0.4 0.1 0.2 5.1529 -7.84865
44 2 N 0.3 0.2 0.2 10.3058 -7.84865
45 2 N 0.4 0.2 0.1 5.1529 -7.84865
46 1 Zr 0.5 0.1 3.70258e-18 15.4587 -12.5713
47 1 Zr 0.5 9.25644e-19 0.1 15.4587 -12.5713
48 1 Zr 0.6 3.70258e-18 6.47951e-18 15.4587 -12.5713
49 1 Zr 0.7 0.1 5.55386e-18 10.3058 -12.5713
50 1 Zr 0.7 2.77693e-18 0.1 10.3058 -12.5713
51 1 Zr 0.6 0.1 0.1 15.4587 -12.5713
52 1 Zr 0.5 0.2 0.1 15.4587 -12.5713
53 1 Zr 0.6 0.2 4.62822e-18 15.4587 -12.5713
54 1 Zr 0.7 0.2 0.1 5.1529 -12.5713
55 1 Zr 0.5 0.1 0.2 15.4587 -12.5713
56 1 Zr 0.6 2.77693e-18 0.2 15.4587 -12.5713
57 1 Zr 0.7 0.1 0.2 5.1529 -12.5713
58 1 Zr 0.6 0.2 0.2 15.4587 -12.5713
59 2 N 0.5 1.85129e-18 1.15706e-18 10.3058 -7.84865
60 2 N 0.7 2.77693e-18 1.85129e-18 15.4587 -7.84865
61 2 N 0.6 0.1 0 15.4587 -7.84865
62 2 N 0.5 0.2 3.70258e-18 10.3058 -7.84865
63 2 N 0.7 0.2 1.85129e-18 5.1529 -7.84865
64 2 N 0.5 0.1 0.1 15.4587 -7.84865
65 2 N 0.5 2.31411e-18 0.2 10.3058 -7.84865
66 2 N 0.6 2.77693e-18 0.1 15.4587 -7.84865
67 2 N 0.7 0.1 0.1 5.1529 -7.84865
68 2 N 0.7 3.23975e-18 0.2 10.3058 -7.84865
69 2 N 0.6 0.1 0.2 10.3058 -7.84865
70 2 N 0.5 0.2 0.2 15.4587 -7.84865
71 2 N 0.6 0.2 0.1 15.4587 -7.84865
72 2 N 0.7 0.2 0.2 15.4587 -7.84865
73 1 Zr 0.8 9.71926e-18 6.71092e-18 10.3058 -12.5713
74 1 Zr 0.9 0.1 8.09939e-18 5.1529 -13.1616
75 1 Zr 0.9 5.32245e-18 0.1 15.4587 -13.1616
76 1 Zr 0.8 0.1 0.1 5.1529 -12.5713
77 1 Zr 0.8 0.2 9.25644e-18 10.3058 -12.5713
78 1 Zr 0.9 0.2 0.1 5.1529 -12.5713
79 1 Zr 0.8 5.09104e-18 0.2 5.1529 -12.5713
80 1 Zr 0.9 0.1 0.2 5.1529 -12.5713
81 1 Zr 0.8 0.2 0.2 15.4587 -12.5713
82 2 N 0.9 2.0827e-18 2.31411e-18 10.3058 -6.84394
83 2 N 0.8 0.1 1.85129e-18 10.3058 -7.84865
84 2 N 0.9 0.2 3.93399e-18 5.1529 -7.84865
85 2 N 0.8 1.85129e-18 0.1 4.664e-31 -7.84865
86 2 N 0.9 0.1 0.1 5.1529 -7.84865
87 2 N 0.9 3.70258e-18 0.2 10.3058 -7.84865
88 2 N 0.8 0.1 0.2 5.1529 -7.84865
89 2 N 0.8 0.2 0.1 5.1529 -7.84865
90 2 N 0.9 0.2 0.2 10.3058 -7.84865
91 1 Zr 0.1 0.3 4.62822e-18 15.4587 -12.5713
92 1 Zr 3.70258e-18 0.3 0.1 15.4587 -12.5713
93 1 Zr 0.2 0.3 0.1 15.4587 -12.5713
94 1 Zr 6.94233e-18 0.4 7.40515e-18 10.3058 -12.5713
95 1 Zr 0.1 0.4 0.1 5.1529 -12.5713
96 1 Zr 0.2 0.4 1.85129e-18 5.1529 -12.5713
97 1 Zr 0.1 0.3 0.2 10.3058 -12.5713
98 1 Zr 3.47117e-18 0.4 0.2 5.1529 -12.5713
99 1 Zr 0.2 0.4 0.2 10.3058 -12.5713
100 2 N 2.77693e-18 0.3 2.31411e-18 10.3058 -7.84865
101 2 N 0.2 0.3 4.62822e-18 10.3058 -7.84865
102 2 N 0.1 0.4 3.70258e-18 10.3058 -7.84865
103 2 N 0.1 0.3 0.1 15.4587 -7.84865
104 2 N 4.62822e-18 0.3 0.2 15.4587 -7.84865
105 2 N 0.2 0.3 0.2 10.3058 -7.84865
106 2 N 1.38847e-18 0.4 0.1 5.1529 -7.84865
107 2 N 0.1 0.4 0.2 5.1529 -7.84865
108 2 N 0.2 0.4 0.1 5.1529 -7.84865
109 1 Zr 0.3 0.3 5.55386e-18 10.3058 -12.5713
110 1 Zr 0.4 0.3 0.1 10.3058 -12.5713
111 1 Zr 0.3 0.4 0.1 15.4587 -12.5713
112 1 Zr 0.4 0.4 6.47951e-18 10.3058 -12.5713
113 1 Zr 0.3 0.3 0.2 15.4587 -12.5713
114 1 Zr 0.4 0.4 0.2 5.1529 -12.5713
115 2 N 0.4 0.3 2.77693e-18 15.4587 -7.84865
116 2 N 0.3 0.4 2.77693e-18 10.3058 -7.84865
117 2 N 0.3 0.3 0.1 10.3058 -7.84865
118 2 N 0.4 0.3 0.2 15.4587 -7.84865
119 2 N 0.3 0.4 0.2 10.3058 -7.84865
120 2 N 0.4 0.4 0.1 0 -7.84865
121 1 Zr 0.5 0.3 3.70258e-18 15.4587 -12.5713
122 1 Zr 0.7 0.3 5.55386e-18 15.4587 -12.5713
123 1 Zr 0.6 0.3 0.1 10.3058 -12.5713
124 1 Zr 0.5 0.4 0.1 10.3058 -12.5713
125 1 Zr 0.6 0.4 8.3308e-18 15.4587 -12.5713
126 1 Zr 0.7 0.4 0.1 5.1529 -12.5713
127 1 Zr 0.5 0.3 0.2 10.3058 -12.5713
128 1 Zr 0.7 0.3 0.2 15.4587 -12.5713
129 1 Zr 0.6 0.4 0.2 10.3058 -12.5713
130 2 N 0.6 0.3 0 10.3058 -7.84865
131 2 N 0.5 0.4 9.25644e-19 15.4587 -7.84865
132 2 N 0.7 0.4 3.70258e-18 10.3058 -7.84865
133 2 N 0.5 0.3 0.1 10.3058 -7.84865
134 2 N 0.7 0.3 0.1 15.4587 -7.84865
135 2 N 0.6 0.3 0.2 10.3058 -7.84865
136 2 N 0.5 0.4 0.2 15.4587 -7.84865
137 2 N 0.6 0.4 0.1 10.3058 -7.84865
138 2 N 0.7 0.4 0.2 5.1529 -7.84865
139 1 Zr 0.9 0.3 6.47951e-18 10.3058 -12.5713
140 1 Zr 0.8 0.3 0.1 15.4587 -12.5713
141 1 Zr 0.8 0.4 1.2959e-17 10.3058 -12.5713
142 1 Zr 0.9 0.4 0.1 5.1529 -12.5713
143 1 Zr 0.9 0.3 0.2 15.4587 -12.5713
144 1 Zr 0.8 0.4 0.2 5.1529 -12.5713
145 2 N 0.8 0.3 1.85129e-18 10.3058 -7.84865
146 2 N 0.9 0.4 3.23975e-18 15.4587 -7.84865
147 2 N 0.9 0.3 0.1 10.3058 -7.84865
148 2 N 0.8 0.3 0.2 10.3058 -7.84865
149 2 N 0.8 0.4 0.1 5.1529 -7.84865
150 2 N 0.9 0.4 0.2 5.1529 -7.84865
151 1 Zr 0.1 0.5 4.62822e-18 15.4587 -12.5713
152 1 Zr 4.62822e-19 0.5 0.1 15.4587 -12.5713
153 1 Zr 0.2 0.5 0.1 10.3058 -12.5713
154 1 Zr 3.23975e-18 0.6 6.2481e-18 10.3058 -12.5713
155 1 Zr 0.1 0.7 5.55386e-18 10.3058 -12.5713
156 1 Zr 0.1 0.6 0.1 10.3058 -12.5713
157 1 Zr 4.1654e-18 0.7 0.1 10.3058 -12.5713
158 1 Zr 0.2 0.6 3.70258e-18 10.3058 -12.5713
159 1 Zr 0.2 0.7 0.1 5.1529 -12.5713
160 1 Zr 0.1 0.5 0.2 10.3058 -12.5713
161 1 Zr 4.85963e-18 0.6 0.2 10.3058 -12.5713
162 1 Zr 0.1 0.7 0.2 5.1529 -12.5713
163 1 Zr 0.2 0.6 0.2 15.4587 -12.5713
164 2 N 4.62822e-19 0.5 1.15706e-18 10.3058 -7.84865
165 2 N 0.2 0.5 5.55386e-18 15.4587 -7.84865
166 2 N 0.1 0.6 0 15.4587 -7.84865
167 2 N 1.38847e-18 0.7 2.77693e-18 10.3058 -7.84865
168 2 N 0.2 0.7 9.25644e-19 5.1529 -7.84865
169 2 N 0.1 0.5 0.1 15.4587 -7.84865
170 2 N 2.77693e-18 0.5 0.2 10.3058 -7.84865
171 2 N 0.2 0.5 0.2 15.4587 -7.84865
172 2 N 2.77693e-18 0.6 0.1 15.4587 -7.84865
173 2 N 0.1 0.7 0.1 5.1529 -7.84865
174 2 N 0.1 0.6 0.2 15.4587 -7.84865
175 2 N 3.23975e-18 0.7 0.2 10.3058 -7.84865
176 2 N 0.2 0.6 0.1 10.3058 -7.84865
177 2 N 0.2 0.7 0.2 10.3058 -7.84865
178 1 Zr 0.3 0.5 4.62822e-18 10.3058 -12.5713
179 1 Zr 0.4 0.5 0.1 10.3058 -12.5713
180 1 Zr 0.3 0.7 3.70258e-18 10.3058 -12.5713
181 1 Zr 0.3 0.6 0.1 10.3058 -12.5713
182 1 Zr 0.4 0.6 1.01821e-17 15.4587 -12.5713
183 1 Zr 0.4 0.7 0.1 0 -12.5713
184 1 Zr 0.3 0.5 0.2 10.3058 -12.5713
185 1 Zr 0.3 0.7 0.2 15.4587 -12.5713
186 1 Zr 0.4 0.6 0.2 10.3058 -12.5713
187 2 N 0.4 0.5 9.25644e-19 10.3058 -7.84865
188 2 N 0.3 0.6 0 10.3058 -7.84865
189 2 N 0.4 0.7 2.77693e-18 10.3058 -7.84865
190 2 N 0.3 0.5 0.1 15.4587 -7.84865
191 2 N 0.4 0.5 0.2 10.3058 -7.84865
192 2 N 0.3 0.7 0.1 10.3058 -7.84865
193 2 N 0.3 0.6 0.2 10.3058 -7.84865
194 2 N 0.4 0.6 0.1 10.3058 -7.84865
195 2 N 0.4 0.7 0.2 5.1529 -7.84865
196 1 Zr 0.5 0.5 3.70258e-18 15.4587 -12.5713
197 1 Zr 0.7 0.5 4.62822e-18 15.4587 -12.5713
198 1 Zr 0.6 0.5 0.1 10.3058 -12.5713
199 1 Zr 0.5 0.7 2.77693e-18 10.3058 -12.5713
200 1 Zr 0.5 0.6 0.1 10.3058 -12.5713
201 1 Zr 0.6 0.6 8.3308e-18 10.3058 -12.5713
202 1 Zr 0.7 0.7 8.3308e-18 5.1529 -12.5713
203 1 Zr 0.7 0.6 0.1 10.3058 -12.5713
204 1 Zr 0.6 0.7 0.1 10.3058 -12.5713
205 1 Zr 0.5 0.5 0.2 15.4587 -12.5713
206 1 Zr 0.7 0.5 0.2 15.4587 -12.5713
207 1 Zr 0.5 0.7 0.2 15.4587 -12.5713
208 1 Zr 0.6 0.6 0.2 10.3058 -12.5713
209 1 Zr 0.7 0.7 0.2 5.1529 -12.5713
210 2 N 0.6 0.5 9.25644e-19 10.3058 -7.84865
211 2 N 0.5 0.6 9.25644e-19 10.3058 -7.84865
212 2 N 0.7 0.6 1.85129e-18 10.3058 -7.84865
213 2 N 0.6 0.7 2.77693e-18 15.4587 -7.84865
214 2 N 0.5 0.5 0.1 10.3058 -7.84865
215 2 N 0.7 0.5 0.1 10.3058 -7.84865
216 2 N 0.6 0.5 0.2 10.3058 -7.84865
217 2 N 0.5 0.7 0.1 15.4587 -7.84865
218 2 N 0.5 0.6 0.2 10.3058 -7.84865
219 2 N 0.6 0.6 0.1 15.4587 -7.84865
220 2 N 0.7 0.7 0.1 5.1529 -7.84865
221 2 N 0.7 0.6 0.2 10.3058 -7.84865
222 2 N 0.6 0.7 0.2 10.3058 -7.84865
223 1 Zr 0.9 0.5 5.78528e-18 15.4587 -12.5713
224 1 Zr 0.8 0.5 0.1 10.3058 -12.5713
225 1 Zr 0.8 0.6 9.25644e-18 10.3058 -12.5713
226 1 Zr 0.9 0.7 6.2481e-18 15.4587 -12.5713
227 1 Zr 0.9 0.6 0.1 15.4587 -12.5713
228 1 Zr 0.8 0.7 0.1 5.1529 -12.5713
229 1 Zr 0.9 0.5 0.2 10.3058 -12.5713
230 1 Zr 0.8 0.6 0.2 10.3058 -12.5713
231 1 Zr 0.9 0.7 0.2 0 -12.5713
232 2 N 0.8 0.5 9.25644e-19 15.4587 -7.84865
233 2 N 0.9 0.6 1.61988e-18 15.4587 -7.84865
234 2 N 0.8 0.7 3.70258e-18 15.4587 -7.84865
235 2 N 0.9 0.5 0.1 10.3058 -7.84865
236 2 N 0.8 0.5 0.2 10.3058 -7.84865
237 2 N 0.8 0.6 0.1 10.3058 -7.84865
238 2 N 0.9 0.7 0.1 5.1529 -7.84865
239 2 N 0.9 0.6 0.2 10.3058 -7.84865
240 2 N 0.8 0.7 0.2 5.1529 -7.84865
241 1 Zr 5.32245e-18 0.8 2.54552e-18 10.3058 -12.5713
242 1 Zr 0.1 0.9 6.94233e-18 10.3058 -13.1616
243 1 Zr 0.1 0.8 0.1 5.1529 -12.5713
244 1 Zr 5.55386e-18 0.9 0.1 5.1529 -13.1616
245 1 Zr 0.2 0.8 8.3308e-18 10.3058 -12.5713
246 1 Zr 0.2 0.9 0.1 5.1529 -12.5713
247 1 Zr 5.32245e-18 0.8 0.2 5.1529 -12.5713
248 1 Zr 0.1 0.9 0.2 5.1529 -12.5713
249 1 Zr 0.2 0.8 0.2 10.3058 -12.5713
250 2 N 0.1 0.8 1.85129e-18 10.3058 -7.84865
251 2 N 4.62822e-19 0.9 4.62822e-19 10.3058 -6.84394
252 2 N 0.2 0.9 1.38847e-18 5.1529 -7.84865
253 2 N 1.85129e-18 0.8 0.1 10.3058 -7.84865
254 2 N 0.1 0.9 0.1 5.1529 -7.84865
255 2 N 0.1 0.8 0.2 5.1529 -7.84865
256 2 N 2.77693e-18 0.9 0.2 5.1529 -7.84865
257 2 N 0.2 0.8 0.1 5.1529 -7.84865
258 2 N 0.2 0.9 0.2 10.3058 -7.84865
259 1 Zr 0.3 0.9 7.86797e-18 10.3058 -12.5713
260 1 Zr 0.3 0.8 0.1 10.3058 -12.5713
261 1 Zr 0.4 0.8 7.40515e-18 5.1529 -12.5713
262 1 Zr 0.4 0.9 0.1 5.1529 -12.5713
263 1 Zr 0.3 0.9 0.2 10.3058 -12.5713
264 1 Zr 0.4 0.8 0.2 5.1529 -12.5713
265 2 N 0.3 0.8 1.85129e-18 10.3058 -7.84865
266 2 N 0.4 0.9 2.77693e-18 5.1529 -7.84865
267 2 N 0.3 0.9 0.1 10.3058 -7.84865
268 2 N 0.3 0.8 0.2 10.3058 -7.84865
269 2 N 0.4 0.8 0.1 0 -7.84865
270 2 N 0.4 0.9 0.2 5.1529 -7.84865
271 1 Zr 0.5 0.9 3.70258e-18 10.3058 -12.5713
272 1 Zr 0.5 0.8 0.1 10.3058 -12.5713
273 1 Zr 0.6 0.8 1.01821e-17 10.3058 -12.5713
274 1 Zr 0.7 0.9 6.2481e-18 10.3058 -12.5713
275 1 Zr 0.7 0.8 0.1 5.1529 -12.5713
276 1 Zr 0.6 0.9 0.1 10.3058 -12.5713
277 1 Zr 0.5 0.9 0.2 15.4587 -12.5713
278 1 Zr 0.6 0.8 0.2 10.3058 -12.5713
279 1 Zr 0.7 0.9 0.2 5.1529 -12.5713
280 2 N 0.5 0.8 1.85129e-18 15.4587 -7.84865
281 2 N 0.7 0.8 1.85129e-18 10.3058 -7.84865
282 2 N 0.6 0.9 2.54552e-18 15.4587 -7.84865
283 2 N 0.5 0.9 0.1 15.4587 -7.84865
284 2 N 0.5 0.8 0.2 10.3058 -7.84865
285 2 N 0.6 0.8 0.1 10.3058 -7.84865
286 2 N 0.7 0.9 0.1 5.1529 -7.84865
287 2 N 0.7 0.8 0.2 5.1529 -7.84865
288 2 N 0.6 0.9 0.2 10.3058 -7.84865
289 1 Zr 0.8 0.8 1.20334e-17 10.3058 -12.5713
290 1 Zr 0.9 0.9 4.39681e-18 15.4587 -13.1616
291 1 Zr 0.9 0.8 0.1 5.1529 -12.5713
292 1 Zr 0.8 0.9 0.1 5.1529 -12.5713
293 1 Zr 0.8 0.8 0.2 5.1529 -12.5713
294 1 Zr 0.9 0.9 0.2 5.1529 -12.5713
295 2 N 0.9 0.8 3.23975e-18 10.3058 -7.84865
296 2 N 0.8 0.9 2.77693e-18 15.4587 -7.84865
297 2 N 0.8 0.8 0.1 5.1529 -7.84865
298 2 N 0.9 0.9 0.1 5.1529 -7.84865
299 2 N 0.9 0.8 0.2 5.1529 -7.84865
300 2 N 0.8 0.9 0.2 5.1529 -7.84865
301 1 Zr 0.1 4.1654e-18 0.3 15.4587 -12.5713
302 1 Zr 2.54552e-18 0.1 0.3 15.4587 -12.5713
303 1 Zr 0.2 0.1 0.3 15.4587 -12.5713
304 1 Zr 0.1 0.2 0.3 10.3058 -12.5713
305 1 Zr 6.47951e-18 7.40515e-18 0.4 10.3058 -12.5713
306 1 Zr 0.1 0.1 0.4 5.1529 -12.5713
307 1 Zr 0.2 1.85129e-18 0.4 5.1529 -12.5713
308 1 Zr 3.70258e-18 0.2 0.4 10.3058 -12.5713
309 1 Zr 0.2 0.2 0.4 10.3058 -12.5713
310 2 N 2.31411e-18 2.0827e-18 0.3 10.3058 -7.84865
311 2 N 0.1 0.1 0.3 15.4587 -7.84865
312 2 N 0.1 9.25644e-19 0.4 10.3058 -7.84865
313 2 N 1.85129e-18 0.1 0.4 5.1529 -7.84865
314 2 N 0.2 4.1654e-18 0.3 10.3058 -7.84865
315 2 N 0.2 0.1 0.4 5.1529 -7.84865
316 2 N 3.23975e-18 0.2 0.3 10.3058 -7.84865
317 2 N 0.1 0.2 0.4 5.1529 -7.84865
318 2 N 0.2 0.2 0.3 15.4587 -7.84865
319 1 Zr 0.3 7.86797e-18 0.3 10.3058 -12.5713
320 1 Zr 0.4 0.1 0.3 15.4587 -12.5713
321 1 Zr 0.3 0.2 0.3 10.3058 -12.5713
322 1 Zr 0.3 0.1 0.4 10.3058 -12.5713
323 1 Zr 0.4 6.47951e-18 0.4 10.3058 -12.5713
324 1 Zr 0.4 0.2 0.4 5.1529 -12.5713
325 2 N 0.3 0.1 0.3 10.3058 -7.84865
326 2 N 0.3 3.23975e-18 0.4 15.4587 -7.84865
327 2 N 0.4 2.31411e-18 0.3 15.4587 -7.84865
328 2 N 0.4 0.1 0.4 5.1529 -7.84865
329 2 N 0.3 0.2 0.4 10.3058 -7.84865
330 2 N 0.4 0.2 0.3 10.3058 -7.84865
331 1 Zr 0.5 2.77693e-18 0.3 15.4587 -12.5713
332 1 Zr 0.7 6.47951e-18 0.3 10.3058 -12.5713
333 1 Zr 0.6 0.1 0.3 15.4587 -12.5713
334 1 Zr 0.5 0.2 0.3 10.3058 -12.5713
335 1 Zr 0.7 0.2 0.3 10.3058 -12.5713
336 1 Zr 0.5 0.1 0.4 15.4587 -12.5713
337 1 Zr 0.6 6.47951e-18 0.4 10.3058 -12.5713
338 1 Zr 0.7 0.1 0.4 5.1529 -12.5713
339 1 Zr 0.6 0.2 0.4 10.3058 -12.5713
340 2 N 0.5 0.1 0.3 15.4587 -7.84865
341 2 N 0.5 9.25644e-19 0.4 15.4587 -7.84865
342 2 N 0.6 1.38847e-18 0.3 10.3058 -7.84865
343 2 N 0.7 0.1 0.3 15.4587 -7.84865
344 2 N 0.7 9.25644e-19 0.4 10.3058 -7.84865
345 2 N 0.6 0.1 0.4 10.3058 -7.84865
346 2 N 0.5 0.2 0.4 10.3058 -7.84865
347 2 N 0.6 0.2 0.3 15.4587 -7.84865
348 2 N 0.7 0.2 0.4 5.1529 -7.84865
349 1 Zr 0.9 6.47951e-18 0.3 15.4587 -12.5713
350 1 Zr 0.8 0.1 0.3 15.4587 -12.5713
351 1 Zr 0.9 0.2 0.3 10.3058 -12.5713
352 1 Zr 0.8 1.2959e-17 0.4 15.4587 -12.5713
353 1 Zr 0.9 0.1 0.4 0 -12.5713
354 1 Zr 0.8 0.2 0.4 15.4587 -12.5713
355 2 N 0.8 1.85129e-18 0.3 10.3058 -7.84865
356 2 N 0.9 0.1 0.3 10.3058 -7.84865
357 2 N 0.9 2.0827e-18 0.4 5.1529 -7.84865
358 2 N 0.8 0.1 0.4 5.1529 -7.84865
359 2 N 0.8 0.2 0.3 10.3058 -7.84865
360 2 N 0.9 0.2 0.4 5.1529 -7.84865
361 1 Zr 7.86797e-18 0.3 0.3 10.3058 -12.5713
362 1 Zr 0.2 0.3 0.3 15.4587 -12.5713
363 1 Zr 0.1 0.4 0.3 10.3058 -12.5713
364 1 Zr 0.1 0.3 0.4 5.1529 -12.5713
365 1 Zr 6.01669e-18 0.4 0.4 5.1529 -12.5713
366 1 Zr 0.2 0.4 0.4 5.1529 -12.5713
367 2 N 0.1 0.3 0.3 15.4587 -7.84865
368 2 N 2.77693e-18 0.3 0.4 10.3058 -7.84865
369 2 N 0.2 0.3 0.4 10.3058 -7.84865
370 2 N 1.85129e-18 0.4 0.3 15.4587 -7.84865
371 2 N 0.1 0.4 0.4 0 -7.84865
372 2 N 0.2 0.4 0.3 15.4587 -7.84865
373 1 Zr 0.4 0.3 0.3 10.3058 -12.5713
374 1 Zr 0.3 0.4 0.3 15.4587 -12.5713
375 1 Zr 0.3 0.3 0.4 10.3058 -12.5713
376 1 Zr 0.4 0.4 0.4 10.3058 -12.5713
377 2 N 0.3 0.3 0.3 15.4587 -7.84865
378 2 N 0.4 0.3 0.4 10.3058 -7.84865
379 2 N 0.3 0.4 0.4 5.1529 -7.84865
380 2 N 0.4 0.4 0.3 10.3058 -7.84865
381 1 Zr 0.6 0.3 0.3 10.3058 -12.5713
382 1 Zr 0.5 0.4 0.3 15.4587 -12.5713
383 1 Zr 0.7 0.4 0.3 15.4587 -12.5713
384 1 Zr 0.5 0.3 0.4 10.3058 -12.5713
385 1 Zr 0.7 0.3 0.4 10.3058 -12.5713
386 1 Zr 0.6 0.4 0.4 10.3058 -12.5713
387 2 N 0.5 0.3 0.3 10.3058 -7.84865
388 2 N 0.7 0.3 0.3 10.3058 -7.84865
389 2 N 0.6 0.3 0.4 15.4587 -7.84865
390 2 N 0.5 0.4 0.4 15.4587 -7.84865
391 2 N 0.6 0.4 0.3 15.4587 -7.84865
392 2 N 0.7 0.4 0.4 10.3058 -7.84865
393 1 Zr 0.8 0.3 0.3 10.3058 -12.5713
394 1 Zr 0.9 0.4 0.3 10.3058 -12.5713
395 1 Zr 0.9 0.3 0.4 10.3058 -12.5713
396 1 Zr 0.8 0.4 0.4 10.3058 -12.5713
397 2 N 0.9 0.3 0.3 15.4587 -7.84865
398 2 N 0.8 0.3 0.4 10.3058 -7.84865
399 2 N 0.8 0.4 0.3 5.1529 -7.84865
400 2 N 0.9 0.4 0.4 5.1529 -7.84865
401 1 Zr 2.77693e-18 0.5 0.3 10.3058 -12.5713
402 1 Zr 0.2 0.5 0.3 10.3058 -12.5713
403 1 Zr 0.1 0.6 0.3 10.3058 -12.5713
404 1 Zr 6.01669e-18 0.7 0.3 10.3058 -12.5713
405 1 Zr 0.2 0.7 0.3 10.3058 -12.5713
406 1 Zr 0.1 0.5 0.4 10.3058 -12.5713
407 1 Zr 6.2481e-18 0.6 0.4 10.3058 -12.5713
408 1 Zr 0.1 0.7 0.4 5.1529 -12.5713
409 1 Zr 0.2 0.6 0.4 10.3058 -12.5713
410 2 N 0.1 0.5 0.3 10.3058 -7.84865
411 2 N 9.25644e-19 0.5 0.4 10.3058 -7.84865
412 2 N 0.2 0.5 0.4 10.3058 -7.84865
413 2 N 2.77693e-18 0.6 0.3 15.4587 -7.84865
414 2 N 0.1 0.7 0.3 10.3058 -7.84865
415 2 N 0.1 0.6 0.4 15.4587 -7.84865
416 2 N 2.77693e-18 0.7 0.4 10.3058 -7.84865
417 2 N 0.2 0.6 0.3 15.4587 -7.84865
418 2 N 0.2 0.7 0.4 5.1529 -7.84865
419 1 Zr 0.4 0.5 0.3 10.3058 -12.5713
420 1 Zr 0.3 0.6 0.3 10.3058 -12.5713
421 1 Zr 0.4 0.7 0.3 10.3058 -12.5713
422 1 Zr 0.3 0.5 0.4 10.3058 -12.5713
423 1 Zr 0.3 0.7 0.4 10.3058 -12.5713
424 1 Zr 0.4 0.6 0.4 10.3058 -12.5713
425 2 N 0.3 0.5 0.3 15.4587 -7.84865
426 2 N 0.4 0.5 0.4 10.3058 -7.84865
427 2 N 0.3 0.7 0.3 15.4587 -7.84865
428 2 N 0.3 0.6 0.4 10.3058 -7.84865
429 2 N 0.4 0.6 0.3 15.4587 -7.84865
430 2 N 0.4 0.7 0.4 15.4587 -7.84865
431 1 Zr 0.6 0.5 0.3 10.3058 -12.5713
432 1 Zr 0.5 0.6 0.3 15.4587 -12.5713
433 1 Zr 0.7 0.6 0.3 10.3058 -12.5713
434 1 Zr 0.6 0.7 0.3 10.3058 -12.5713
435 1 Zr 0.5 0.5 0.4 15.4587 -12.5713
436 1 Zr 0.7 0.5 0.4 10.3058 -12.5713
437 1 Zr 0.5 0.7 0.4 10.3058 -12.5713
438 1 Zr 0.6 0.6 0.4 10.3058 -12.5713
439 1 Zr 0.7 0.7 0.4 10.3058 -12.5713
440 2 N 0.5 0.5 0.3 15.4587 -7.84865
441 2 N 0.7 0.5 0.3 10.3058 -7.84865
442 2 N 0.6 0.5 0.4 10.3058 -7.84865
443 2 N 0.5 0.7 0.3 10.3058 -7.84865
444 2 N 0.5 0.6 0.4 15.4587 -7.84865
445 2 N 0.6 0.6 0.3 10.3058 -7.84865
446 2 N 0.7 0.7 0.3 10.3058 -7.84865
447 2 N 0.7 0.6 0.4 5.1529 -7.84865
448 2 N 0.6 0.7 0.4 10.3058 -7.84865
449 1 Zr 0.8 0.5 0.3 10.3058 -12.5713
450 1 Zr 0.9 0.6 0.3 15.4587 -12.5713
451 1 Zr 0.8 0.7 0.3 15.4587 -12.5713
452 1 Zr 0.9 0.5 0.4 10.3058 -12.5713
453 1 Zr 0.8 0.6 0.4 10.3058 -12.5713
454 1 Zr 0.9 0.7 0.4 5.1529 -12.5713
455 2 N 0.9 0.5 0.3 10.3058 -7.84865
456 2 N 0.8 0.5 0.4 5.1529 -7.84865
457 2 N 0.8 0.6 0.3 15.4587 -7.84865
458 2 N 0.9 0.7 0.3 10.3058 -7.84865
459 2 N 0.9 0.6 0.4 10.3058 -7.84865
460 2 N 0.8 0.7 0.4 10.3058 -7.84865
461 1 Zr 0.1 0.8 0.3 10.3058 -12.5713
462 1 Zr 7.86797e-18 0.9 0.3 15.4587 -12.5713
463 1 Zr 0.2 0.9 0.3 10.3058 -12.5713
464 1 Zr 1.11077e-17 0.8 0.4 15.4587 -12.5713
465 1 Zr 0.1 0.9 0.4 5.1529 -12.5713
466 1 Zr 0.2 0.8 0.4 5.1529 -12.5713
467 2 N 2.77693e-18 0.8 0.3 10.3058 -7.84865
468 2 N 0.1 0.9 0.3 10.3058 -7.84865
469 2 N 0.1 0.8 0.4 5.1529 -7.84865
470 2 N 2.31411e-18 0.9 0.4 10.3058 -7.84865
471 2 N 0.2 0.8 0.3 15.4587 -7.84865
472 2 N 0.2 0.9 0.4 5.1529 -7.84865
473 1 Zr 0.3 0.8 0.3 15.4587 -12.5713
474 1 Zr 0.4 0.9 0.3 10.3058 -12.5713
475 1 Zr 0.3 0.9 0.4 10.3058 -12.5713
476 1 Zr 0.4 0.8 0.4 5.1529 -12.5713
477 2 N 0.3 0.9 0.3 10.3058 -7.84865
478 2 N 0.3 0.8 0.4 10.3058 -7.84865
479 2 N 0.4 0.8 0.3 10.3058 -7.84865
480 2 N 0.4 0.9 0.4 10.3058 -7.84865
481 1 Zr 0.5 0.8 0.3 15.4587 -12.5713
482 1 Zr 0.7 0.8 0.3 10.3058 -12.5713
483 1 Zr 0.6 0.9 0.3 10.3058 -12.5713
484 1 Zr 0.5 0.9 0.4 10.3058 -12.5713
485 1 Zr 0.6 0.8 0.4 10.3058 -12.5713
486 1 Zr 0.7 0.9 0.4 15.4587 -12.5713
487 2 N 0.5 0.9 0.3 15.4587 -7.84865
488 2 N 0.5 0.8 0.4 15.4587 -7.84865
489 2 N 0.6 0.8 0.3 10.3058 -7.84865
490 2 N 0.7 0.9 0.3 10.3058 -7.84865
491 2 N 0.7 0.8 0.4 5.1529 -7.84865
492 2 N 0.6 0.9 0.4 10.3058 -7.84865
493 1 Zr 0.9 0.8 0.3 5.1529 -12.5713
494 1 Zr 0.8 0.9 0.3 10.3058 -12.5713
495 1 Zr 0.8 0.8 0.4 5.1529 -12.5713
496 1 Zr 0.9 0.9 0.4 10.3058 -12.5713
497 2 N 0.8 0.8 0.3 5.1529 -7.84865
498 2 N 0.9 0.9 0.3 10.3058 -7.84865
499 2 N 0.9 0.8 0.4 10.3058 -7.84865
500 2 N 0.8 0.9 0.4 5.1529 -7.84865
501 1 Zr 0.1 0 0.5 15.4587 -12.5713
502 1 Zr 2.31411e-19 0.1 0.5 15.4587 -12.5713
503 1 Zr 0.2 0.1 0.5 15.4587 -12.5713
504 1 Zr 0.1 0.2 0.5 10.3058 -12.5713
505 1 Zr 2.31411e-18 1.38847e-18 0.6 10.3058 -12.5713
506 1 Zr 0.1 0.1 0.6 15.4587 -12.5713
507 1 Zr 0.1 0 0.7 10.3058 -12.5713
508 1 Zr 1.85129e-18 0.1 0.7 10.3058 -12.5713
509 1 Zr 0.2 0 0.6 15.4587 -12.5713
510 1 Zr 0.2 0.1 0.7 5.1529 -12.5713
511 1 Zr 1.15706e-18 0.2 0.6 10.3058 -12.5713
512 1 Zr 0.1 0.2 0.7 5.1529 -12.5713
513 1 Zr 0.2 0.2 0.6 15.4587 -12.5713
514 2 N 9.25644e-19 2.54552e-18 0.5 10.3058 -7.84865
515 2 N 0.1 0.1 0.5 5.1529 -7.84865
516 2 N 0.1 0 0.6 15.4587 -7.84865
517 2 N 6.94233e-19 0.1 0.6 15.4587 -7.84865
518 2 N 0.2 3.70258e-18 0.5 5.1529 -7.84865
519 2 N 0.2 0.1 0.6 15.4587 -7.84865
520 2 N 4.62822e-18 0.2 0.5 5.1529 -7.84865
521 2 N 0.1 0.2 0.6 15.4587 -7.84865
522 2 N 0.2 0.2 0.5 10.3058 -7.84865
523 2 N 4.62822e-19 1.61988e-18 0.7 15.4587 -7.84865
524 2 N 0.1 0.1 0.7 15.4587 -7.84865
525 2 N 0.2 3.70258e-18 0.7 10.3058 -7.84865
526 2 N 3.70258e-18 0.2 0.7 10.3058 -7.84865
527 2 N 0.2 0.2 0.7 10.3058 -7.84865
528 1 Zr 0.3 1.38847e-18 0.5 15.4587 -12.5713
529 1 Zr 0.4 0.1 0.5 5.1529 -12.5713
530 1 Zr 0.3 0.2 0.5 10.3058 -12.5713
531 1 Zr 0.3 0.1 0.6 15.4587 -12.5713
532 1 Zr 0.3 5.09104e-18 0.7 10.3058 -12.5713
533 1 Zr 0.4 9.25644e-19 0.6 15.4587 -12.5713
534 1 Zr 0.4 0.1 0.7 5.1529 -12.5713
535 1 Zr 0.3 0.2 0.7 10.3058 -12.5713
536 1 Zr 0.4 0.2 0.6 10.3058 -12.5713
537 2 N 0.3 0.1 0.5 10.3058 -7.84865
538 2 N 0.3 0 0.6 15.4587 -7.84865
539 2 N 0.4 2.77693e-18 0.5 15.4587 -7.84865
540 2 N 0.4 0.1 0.6 15.4587 -7.84865
541 2 N 0.3 0.2 0.6 10.3058 -7.84865
542 2 N 0.4 0.2 0.5 5.1529 -7.84865
543 2 N 0.3 0.1 0.7 10.3058 -7.84865
544 2 N 0.4 0 0.7 10.3058 -7.84865
545 2 N 0.4 0.2 0.7 10.3058 -7.84865
546 1 Zr 0.5 1.85129e-18 0.5 15.4587 -12.5713
547 1 Zr 0.7 6.94233e-18 0.5 15.4587 -12.5713
548 1 Zr 0.6 0.1 0.5 15.4587 -12.5713
549 1 Zr 0.5 0.2 0.5 10.3058 -12.5713
550 1 Zr 0.7 0.2 0.5 15.4587 -12.5713
551 1 Zr 0.5 0.1 0.6 10.3058 -12.5713
552 1 Zr 0.5 4.62822e-18 0.7 10.3058 -12.5713
553 1 Zr 0.6 3.70258e-18 0.6 15.4587 -12.5713
554 1 Zr 0.7 0.1 0.6 15.4587 -12.5713
555 1 Zr 0.7 6.01669e-18 0.7 5.1529 -12.5713
556 1 Zr 0.6 0.1 0.7 15.4587 -12.5713
557 1 Zr 0.5 0.2 0.7 15.4587 -12.5713
558 1 Zr 0.6 0.2 0.6 10.3058 -12.5713
559 1 Zr 0.7 0.2 0.7 5.1529 -12.5713
560 2 N 0.5 0.1 0.5 10.3058 -7.84865
561 2 N 0.5 1.85129e-18 0.6 10.3058 -7.84865
562 2 N 0.6 1.38847e-18 0.5 10.3058 -7.84865
563 2 N 0.7 0.1 0.5 5.1529 -7.84865
564 2 N 0.7 0 0.6 15.4587 -7.84865
565 2 N 0.6 0.1 0.6 15.4587 -7.84865
566 2 N 0.5 0.2 0.6 15.4587 -7.84865
567 2 N 0.6 0.2 0.5 10.3058 -7.84865
568 2 N 0.7 0.2 0.6 15.4587 -7.84865
569 2 N 0.5 0.1 0.7 10.3058 -7.84865
570 2 N 0.6 1.85129e-18 0.7 10.3058 -7.84865
571 2 N 0.7 0.1 0.7 10.3058 -7.84865
572 2 N 0.6 0.2 0.7 15.4587 -7.84865
573 1 Zr 0.9 6.94233e-18 0.5 10.3058 -12.5713
574 1 Zr 0.8 0.1 0.5 10.3058 -12.5713
575 1 Zr 0.9 0.2 0.5 10.3058 -12.5713
576 1 Zr 0.8 4.1654e-18 0.6 10.3058 -12.5713
577 1 Zr 0.9 0.1 0.6 10.3058 -12.5713
578 1 Zr 0.9 6.01669e-18 0.7 15.4587 -12.5713
579 1 Zr 0.8 0.1 0.7 5.1529 -12.5713
580 1 Zr 0.8 0.2 0.6 5.1529 -12.5713
581 1 Zr 0.9 0.2 0.7 5.1529 -12.5713
582 2 N 0.8 9.25644e-19 0.5 10.3058 -7.84865
583 2 N 0.9 0.1 0.5 5.1529 -7.84865
584 2 N 0.9 1.15706e-18 0.6 10.3058 -7.84865
585 2 N 0.8 0.1 0.6 10.3058 -7.84865
586 2 N 0.8 0.2 0.5 5.1529 -7.84865
587 2 N 0.9 0.2 0.6 10.3058 -7.84865
588 2 N 0.8 0 0.7 10.3058 -7.84865
589 2 N 0.9 0.1 0.7 10.3058 -7.84865
590 2 N 0.8 0.2 0.7 10.3058 -7.84865
591 1 Zr 3.23975e-18 0.3 0.5 15.4587 -12.5713
592 1 Zr 0.2 0.3 0.5 15.4587 -12.5713
593 1 Zr 0.1 0.4 0.5 10.3058 -12.5713
594 1 Zr 0.1 0.3 0.6 10.3058 -12.5713
595 1 Zr 4.1654e-18 0.3 0.7 15.4587 -12.5713
596 1 Zr 0.2 0.3 0.7 10.3058 -12.5713
597 1 Zr 2.0827e-18 0.4 0.6 15.4587 -12.5713
598 1 Zr 0.1 0.4 0.7 5.1529 -12.5713
599 1 Zr 0.2 0.4 0.6 10.3058 -12.5713
600 2 N 0.1 0.3 0.5 10.3058 -7.84865
601 2 N 0 0.3 0.6 10.3058 -7.84865
602 2 N 0.2 0.3 0.6 15.4587 -7.84865
603 2 N 2.77693e-18 0.4 0.5 5.1529 -7.84865
604 2 N 0.1 0.4 0.6 15.4587 -7.84865
605 2 N 0.2 0.4 0.5 5.1529 -7.84865
606 2 N 0.1 0.3 0.7 10.3058 -7.84865
607 2 N 0 0.4 0.7 10.3058 -7.84865
608 2 N 0.2 0.4 0.7 10.3058 -7.84865
609 1 Zr 0.4 0.3 0.5 10.3058 -12.5713
610 1 Zr 0.3 0.4 0.5 15.4587 -12.5713
611 1 Zr 0.3 0.3 0.6 10.3058 -12.5713
612 1 Zr 0.4 0.3 0.7 15.4587 -12.5713
613 1 Zr 0.3 0.4 0.7 5.1529 -12.5713
614 1 Zr 0.4 0.4 0.6 10.3058 -12.5713
615 2 N 0.3 0.3 0.5 10.3058 -7.84865
616 2 N 0.4 0.3 0.6 15.4587 -7.84865
617 2 N 0.3 0.4 0.6 10.3058 -7.84865
618 2 N 0.4 0.4 0.5 5.1529 -7.84865
619 2 N 0.3 0.3 0.7 15.4587 -7.84865
620 2 N 0.4 0.4 0.7 10.3058 -7.84865
621 1 Zr 0.6 0.3 0.5 15.4587 -12.5713
622 1 Zr 0.5 0.4 0.5 10.3058 -12.5713
623 1 Zr 0.7 0.4 0.5 5.1529 -12.5713
624 1 Zr 0.5 0.3 0.6 10.3058 -12.5713
625 1 Zr 0.7 0.3 0.6 5.1529 -12.5713
626 1 Zr 0.6 0.3 0.7 10.3058 -12.5713
627 1 Zr 0.5 0.4 0.7 10.3058 -12.5713
628 1 Zr 0.6 0.4 0.6 15.4587 -12.5713
629 1 Zr 0.7 0.4 0.7 10.3058 -12.5713
630 2 N 0.5 0.3 0.5 10.3058 -7.84865
631 2 N 0.7 0.3 0.5 10.3058 -7.84865
632 2 N 0.6 0.3 0.6 10.3058 -7.84865
633 2 N 0.5 0.4 0.6 10.3058 -7.84865
634 2 N 0.6 0.4 0.5 10.3058 -7.84865
635 2 N 0.7 0.4 0.6 10.3058 -7.84865
636 2 N 0.5 0.3 0.7 15.4587 -7.84865
637 2 N 0.7 0.3 0.7 15.4587 -7.84865
638 2 N 0.6 0.4 0.7 10.3058 -7.84865
639 1 Zr 0.8 0.3 0.5 15.4587 -12.5713
640 1 Zr 0.9 0.4 0.5 15.4587 -12.5713
641 1 Zr 0.9 0.3 0.6 15.4587 -12.5713
642 1 Zr 0.8 0.3 0.7 15.4587 -12.5713
643 1 Zr 0.8 0.4 0.6 10.3058 -12.5713
644 1 Zr 0.9 0.4 0.7 5.1529 -12.5713
645 2 N 0.9 0.3 0.5 10.3058 -7.84865
646 2 N 0.8 0.3 0.6 10.3058 -7.84865
647 2 N 0.8 0.4 0.5 5.1529 -7.84865
648 2 N 0.9 0.4 0.6 10.3058 -7.84865
649 2 N 0.9 0.3 0.7 15.4587 -7.84865
650 2 N 0.8 0.4 0.7 10.3058 -7.84865
651 1 Zr 3.23975e-18 0.5 0.5 10.3058 -12.5713
652 1 Zr 0.2 0.5 0.5 15.4587 -12.5713
653 1 Zr 0.1 0.6 0.5 10.3058 -12.5713
654 1 Zr 5.09104e-18 0.7 0.5 15.4587 -12.5713
655 1 Zr 0.2 0.7 0.5 10.3058 -12.5713
656 1 Zr 0.1 0.5 0.6 10.3058 -12.5713
657 1 Zr 3.70258e-18 0.5 0.7 10.3058 -12.5713
658 1 Zr 0.2 0.5 0.7 10.3058 -12.5713
659 1 Zr 3.23975e-18 0.6 0.6 15.4587 -12.5713
660 1 Zr 0.1 0.7 0.6 10.3058 -12.5713
661 1 Zr 0.1 0.6 0.7 10.3058 -12.5713
662 1 Zr 7.86797e-18 0.7 0.7 5.1529 -12.5713
663 1 Zr 0.2 0.6 0.6 10.3058 -12.5713
664 1 Zr 0.2 0.7 0.7 5.1529 -12.5713
665 2 N 0.1 0.5 0.5 10.3058 -7.84865
666 2 N 6.94233e-19 0.5 0.6 10.3058 -7.84865
667 2 N 0.2 0.5 0.6 10.3058 -7.84865
668 2 N 9.25644e-19 0.6 0.5 10.3058 -7.84865
669 2 N 0.1 0.7 0.5 5.1529 -7.84865
670 2 N 0.1 0.6 0.6 10.3058 -7.84865
671 2 N 0 0.7 0.6 15.4587 -7.84865
672 2 N 0.2 0.6 0.5 10.3058 -7.84865
673 2 N 0.2 0.7 0.6 15.4587 -7.84865
674 2 N 0.1 0.5 0.7 10.3058 -7.84865
675 2 N 2.31411e-18 0.6 0.7 10.3058 -7.84865
676 2 N 0.1 0.7 0.7 5.1529 -7.84865
677 2 N 0.2 0.6 0.7 10.3058 -7.84865
678 1 Zr 0.4 0.5 0.5 10.3058 -12.5713
679 1 Zr 0.3 0.6 0.5 10.3058 -12.5713
680 1 Zr 0.4 0.7 0.5 15.4587 -12.5713
681 1 Zr 0.3 0.5 0.6 10.3058 -12.5713
682 1 Zr 0.4 0.5 0.7 10.3058 -12.5713
683 1 Zr 0.3 0.7 0.6 10.3058 -12.5713
684 1 Zr 0.3 0.6 0.7 10.3058 -12.5713
685 1 Zr 0.4 0.6 0.6 15.4587 -12.5713
686 1 Zr 0.4 0.7 0.7 15.4587 -12.5713
687 2 N 0.3 0.5 0.5 10.3058 -7.84865
688 2 N 0.4 0.5 0.6 10.3058 -7.84865
689 2 N 0.3 0.7 0.5 10.3058 -7.84865
690 2 N 0.3 0.6 0.6 10.3058 -7.84865
691 2 N 0.4 0.6 0.5 5.1529 -7.84865
692 2 N 0.4 0.7 0.6 5.1529 -7.84865
693 2 N 0.3 0.5 0.7 10.3058 -7.84865
694 2 N 0.3 0.7 0.7 10.3058 -7.84865
695 2 N 0.4 0.6 0.7 15.4587 -7.84865
696 1 Zr 0.6 0.5 0.5 10.3058 -12.5713
697 1 Zr 0.5 0.6 0.5 15.4587 -12.5713
698 1 Zr 0.7 0.6 0.5 10.3058 -12.5713
699 1 Zr 0.6 0.7 0.5 15.4587 -12.5713
700 1 Zr 0.5 0.5 0.6 15.4587 -12.5713
701 1 Zr 0.7 0.5 0.6 15.4587 -12.5713
702 1 Zr 0.6 0.5 0.7 10.3058 -12.5713
703 1 Zr 0.5 0.7 0.6 10.3058 -12.5713
704 1 Zr 0.5 0.6 0.7 10.3058 -12.5713
705 1 Zr 0.6 0.6 0.6 15.4587 -12.5713
706 1 Zr 0.7 0.7 0.6 10.3058 -12.5713
707 1 Zr 0.7 0.6 0.7 15.4587 -12.5713
708 1 Zr 0.6 0.7 0.7 10.3058 -12.5713
709 2 N 0.5 0.5 0.5 10.3058 -7.84865
710 2 N 0.7 0.5 0.5 5.1529 -7.84865
711 2 N 0.6 0.5 0.6 10.3058 -7.84865
712 2 N 0.5 0.7 0.5 10.3058 -7.84865
713 2 N 0.5 0.6 0.6 10.3058 -7.84865
714 2 N 0.6 0.6 0.5 10.3058 -7.84865
715 2 N 0.7 0.7 0.5 10.3058 -7.84865
716 2 N 0.7 0.6 0.6 10.3058 -7.84865
717 2 N 0.6 0.7 0.6 10.3058 -7.84865
718 2 N 0.5 0.5 0.7 10.3058 -7.84865
719 2 N 0.7 0.5 0.7 10.3058 -7.84865
720 2 N 0.5 0.7 0.7 10.3058 -7.84865
721 2 N 0.6 0.6 0.7 15.4587 -7.84865
722 2 N 0.7 0.7 0.7 10.3058 -7.84865
723 1 Zr 0.8 0.5 0.5 10.3058 -12.5713
724 1 Zr 0.9 0.6 0.5 15.4587 -12.5713
725 1 Zr 0.8 0.7 0.5 5.1529 -12.5713
726 1 Zr 0.9 0.5 0.6 15.4587 -12.5713
727 1 Zr 0.8 0.5 0.7 10.3058 -12.5713
728 1 Zr 0.8 0.6 0.6 10.3058 -12.5713
729 1 Zr 0.9 0.7 0.6 10.3058 -12.5713
730 1 Zr 0.9 0.6 0.7 15.4587 -12.5713
731 1 Zr 0.8 0.7 0.7 10.3058 -12.5713
732 2 N 0.9 0.5 0.5 10.3058 -7.84865
733 2 N 0.8 0.5 0.6 10.3058 -7.84865
734 2 N 0.8 0.6 0.5 10.3058 -7.84865
735 2 N 0.9 0.7 0.5 5.1529 -7.84865
736 2 N 0.9 0.6 0.6 10.3058 -7.84865
737 2 N 0.8 0.7 0.6 5.1529 -7.84865
738 2 N 0.9 0.5 0.7 10.3058 -7.84865
739 2 N 0.8 0.6 0.7 10.3058 -7.84865
740 2 N 0.9 0.7 0.7 5.1529 -7.84865
741 1 Zr 0.1 0.8 0.5 10.3058 -12.5713
742 1 Zr 8.3308e-18 0.9 0.5 10.3058 -12.5713
743 1 Zr 0.2 0.9 0.5 10.3058 -12.5713
744 1 Zr 4.1654e-18 0.8 0.6 5.1529 -12.5713
745 1 Zr 0.1 0.9 0.6 10.3058 -12.5713
746 1 Zr 0.1 0.8 0.7 5.1529 -12.5713
747 1 Zr 1.06449e-17 0.9 0.7 10.3058 -12.5713
748 1 Zr 0.2 0.8 0.6 10.3058 -12.5713
749 1 Zr 0.2 0.9 0.7 5.1529 -12.5713
750 2 N 2.31411e-18 0.8 0.5 5.1529 -7.84865
751 2 N 0.1 0.9 0.5 5.1529 -7.84865
752 2 N 0.1 0.8 0.6 10.3058 -7.84865
753 2 N 0 0.9 0.6 10.3058 -7.84865