ITEM: TIMESTEP
800
ITEM: NUMBER OF ATOMS
1727
ITEM: BOX BOUNDS pp pp pp
0.0000000000000000e+00 2.7240000000000002e+01
0.0000000000000000e+00 2.7240000000000002e+01
0.0000000000000000e+00 2.7240000000000002e+01
ITEM: ATOMS id type element xs ys zs c_csym c_eng
2 1 Zr 0.0721133 0.0694287 0.982269 13.534 -16.1877
3 1 Zr 0.0859519 0.963349 0.111767 8.93427 -16.2759
4 1 Zr 0.994149 0.0911205 0.0870675 6.81909 -13.5561
5 1 Zr 0.151262 0.00444149 0.990448 6.37071 -13.6725
6 1 Zr 0.151217 0.0789415 0.0847754 9.52053 -14.5511
7 1 Zr 0.970253 0.18842 0.990827 10.0439 -19.8863
8 1 Zr 0.0807946 0.125243 0.0396363 9.03607 -20.2442
9 1 Zr 0.145086 0.176223 0.0322476 5.49996 -15.6982
10 1 Zr 0.00284631 0.0472012 0.207624 9.37182 -19.8665
11 1 Zr 0.0946814 0.0932042 0.163332 9.12379 -13.991
12 1 Zr 0.178401 0.0161912 0.148189 9.70113 -18.1841
13 1 Zr 0.994978 0.170324 0.17709 7.08444 -13.8146
14 1 Zr 0.159737 0.170346 0.159266 9.59588 -15.5026
15 2 N 0.0698304 0.0125785 0.00311663 12.5458 -6.5409
16 2 N 0.993265 0.0751732 0.0112194 9.70808 -4.98305
17 2 N 0.175094 0.0771655 1.00166 10.0473 -5.04638
18 2 N 0.10709 0.194242 0.977868 7.41191 -5.74495
19 2 N 0.983508 0.018614 0.0935457 7.97513 -5.449
20 2 N 0.0852757 0.0993648 0.0871228 9.27616 -8.43181
21 2 N 0.092755 0.0145669 0.143985 7.66904 -6.54592
22 2 N 0.0140261 0.0837838 0.166435 9.82584 -7.71815
23 2 N 0.152093 0.995066 0.0635888 6.59829 -5.44587
24 2 N 0.178176 0.0778029 0.188007 12.257 -5.96851
25 2 N -0.00034477 0.175377 0.0965692 11.9567 -7.56347
26 2 N 0.0723178 0.176765 0.173202 8.28688 -5.74078
27 2 N 0.189809 0.134687 0.085643 9.16301 -8.3993
28 1 Zr 0.259534 0.0843762 0.0051392 11.6795 -14.8755
29 1 Zr 0.242997 0.980923 0.112924 10.1826 -18.9152
30 1 Zr 0.309585 0.00301853 0.0153378 11.7062 -13.8988
31 1 Zr 0.339241 0.0626243 0.0873447 5.07792 -13.8455
32 1 Zr 0.24057 0.144083 0.0665125 11.8012 -19.2941
33 1 Zr 0.334784 0.155135 0.995388 6.88186 -13.8177
34 1 Zr 0.253298 0.0895985 0.193596 6.75858 -14.081
35 1 Zr 0.321565 0.981894 0.153947 10.9359 -14.621
36 1 Zr 0.291568 0.152885 0.132969 7.41965 -15.5249
37 2 N 0.234482 0.986753 0.997395 7.98154 -5.14587
38 2 N 0.335958 0.0746513 0.990097 6.72823 -6.00519
39 2 N 0.262853 0.157459 0.97137 9.2283 -5.83323
40 2 N 0.259546 0.0538953 0.0945734 10.409 -5.08185
41 2 N 0.255814 0.0132362 0.199109 8.81976 -5.73275
42 2 N 0.339156 0.986329 0.0749015 9.51729 -7.71113
43 2 N 0.337213 0.0777701 0.168161 6.45329 -5.37792
44 2 N 0.229197 0.167451 0.180627 12.1638 -5.56034
45 2 N 0.34163 0.140487 0.0770426 10.4018 -5.57685
46 1 Zr 0.416116 0.0635478 0.992193 4.89286 -14.098
47 1 Zr 0.391103 0.985346 0.0395403 6.39022 -16.1241
48 1 Zr 0.495176 1.00177 0.0085843 7.35434 -13.804
49 1 Zr 0.602312 0.0728482 0.0193867 10.5287 -13.6981
50 1 Zr 0.571244 -0.000458095 0.0932439 11.5552 -13.7357
51 1 Zr 0.510065 0.0653953 0.0622566 9.79652 -15.8751
52 1 Zr 0.385401 0.207497 0.0555528 7.741 -20.8761
53 1 Zr 0.500029 0.179043 0.972454 6.67385 -16.2145
54 1 Zr 0.614883 0.206752 0.0562024 9.04023 -21.6791
55 1 Zr 0.418364 0.0828627 0.15381 4.83883 -13.7054
56 1 Zr 0.497154 1.00113 0.162499 4.28338 -13.6928
57 1 Zr 0.591721 0.0882549 0.163082 8.10095 -13.7785
58 1 Zr 0.50341 0.13418 0.101938 7.48281 -19.1377
59 2 N 0.432424 0.987229 0.965107 7.861 -6.15176
60 2 N 0.580295 0.0115876 0.976365 13.2021 -5.84945
61 2 N 0.495301 0.0682713 0.00570122 10.5906 -7.99492
62 2 N 0.417086 0.138858 1.00014 8.12008 -5.13282
63 2 N 0.589794 0.137683 -0.00548209 8.96927 -5.1281
64 2 N 0.417991 0.066963 0.0812671 4.54397 -5.43847
65 2 N 0.415997 1.00249 0.161738 10.563 -5.50771
66 2 N 0.489903 0.970491 0.0884341 9.66512 -6.62484
67 2 N 0.588044 0.0846969 0.0850134 7.47675 -6.08785
68 2 N 0.577238 0.00628916 0.163271 6.94016 -5.94286
69 2 N 0.502799 0.0819905 0.156852 6.79377 -5.97377
70 2 N 0.407277 0.158713 0.163178 9.58752 -7.11327
71 2 N 0.504298 0.190079 0.0517953 8.97175 -5.47407
72 2 N 0.59779 0.169933 0.166395 9.9552 -7.59125
73 1 Zr 0.660977 0.00862303 0.977265 9.84436 -14.6974
74 1 Zr 0.778561 0.0382262 0.969188 8.70544 -17.2355
75 1 Zr 0.741838 0.998692 0.079487 7.49919 -20.0323
76 1 Zr 0.694107 0.0646554 0.0626764 13.2966 -14.1209
77 1 Zr 0.675251 0.162519 1.00885 7.50158 -14.982
78 1 Zr 0.75776 0.172324 0.0750582 6.29611 -13.5182
79 1 Zr 0.683884 0.993866 0.147864 10.0719 -13.6107
80 1 Zr 0.696896 0.100926 0.226754 9.46695 -16.2582
81 1 Zr 0.676934 0.160667 0.159736 7.23898 -14.0917
82 2 N 0.731242 0.0171477 0.94166 12.1336 -7.13497
83 2 N 0.683014 0.0883878 1.00254 10.6043 -6.60119
84 2 N 0.757917 0.16233 0.994668 9.19917 -5.9901
85 2 N 0.642532 0.996745 0.0815616 7.41375 -5.68745
86 2 N 0.766065 0.0967086 0.0768172 9.12809 -5.34803
87 2 N 0.758234 0.00212119 0.130101 5.91273 -7.94187
88 2 N 0.664799 0.067817 0.151617 10.0036 -5.47779
89 2 N 0.686727 0.155296 0.0920096 9.83708 -5.97501
90 2 N 0.761018 0.171382 0.166177 6.48845 -5.73642
91 1 Zr 0.795646 0.991012 0.0295627 9.99617 -19.8738
92 1 Zr 0.917549 0.0747597 0.00604511 6.97141 -13.6669
93 1 Zr 0.912628 0.986639 0.0820015 8.93255 -13.598
94 1 Zr 0.833957 0.073002 0.0875146 8.50671 -13.593
95 1 Zr 0.842087 0.173346 0.0064631 8.02002 -14.1603
96 1 Zr 0.918942 0.169586 0.0726365 4.73418 -14.1365
97 1 Zr 0.825346 0.00477032 0.172425 7.11477 -13.6682
98 1 Zr 0.927744 0.0947655 0.163574 5.52582 -13.7329
99 1 Zr 0.837576 0.155839 0.163755 8.18515 -13.8581
100 2 N 0.929179 0.99363 0.0118828 6.0378 -5.85362
101 2 N 0.842904 0.0974587 0.0146299 11.6285 -5.29528
102 2 N 0.930852 0.15114 0.989042 9.88559 -8.35737
103 2 N 0.84152 0.000117793 0.0553948 5.71953 -8.32058
104 2 N 0.913889 0.0941919 0.0917063 7.09529 -6.14711
105 2 N 0.896852 0.0209121 0.162282 9.61311 -7.41114
106 2 N 0.815339 0.0841614 0.166875 7.1921 -5.74473
107 2 N 0.839086 0.173081 0.0851918 7.89798 -6.15705
108 2 N 0.914112 0.170838 0.160374 9.55909 -6.57509
109 1 Zr 0.110712 0.263806 0.000903571 6.34677 -12.9142
110 1 Zr 0.0217519 0.174538 0.045331 7.50591 -16.8882
111 1 Zr 0.147118 0.225847 0.0957522 11.5226 -19.2362
112 1 Zr 0.981466 0.318752 0.00822283 9.67249 -15.4159
113 1 Zr 0.0864078 0.332195 0.0743199 9.04474 -13.5045
114 1 Zr 0.180311 0.337243 0.987698 6.43756 -14.3953
115 1 Zr 0.0808334 0.25842 0.18351 6.20535 -15.2054
116 1 Zr 0.996185 0.326317 0.163707 8.40467 -13.6374
117 1 Zr 0.154148 0.313626 0.178726 9.72726 -15.8047
118 2 N 0.0375921 0.258652 0.000443258 7.28076 -5.12114
119 2 N 0.196562 0.248989 0.998639 12.3935 -5.82865
120 2 N 0.0961542 0.341129 0.000654082 5.51491 -5.59779
121 2 N 0.100786 0.254759 0.0980023 11.7853 -7.4817
122 2 N -0.00270152 0.247502 0.173605 7.1219 -6.39482
123 2 N 0.160069 0.231942 0.204559 8.58261 -5.71886
124 2 N 0.00720286 0.309466 0.0932873 10.9295 -5.09156
125 2 N 0.0685833 0.345617 0.161577 11.5128 -7.30521
126 2 N 0.164945 0.336621 0.0736101 11.5186 -5.7744
127 1 Zr 0.249505 0.215604 0.0239441 14.0137 -13.4279
128 1 Zr 0.331783 0.261354 0.0796649 7.75126 -19.575
129 1 Zr 0.251563 0.342069 0.0874155 6.21549 -15.5366
130 1 Zr 0.344529 0.318886 0.0216901 13.915 -14.291
131 1 Zr 0.205177 0.277075 0.124534 7.79468 -18.7137
132 1 Zr 0.347918 0.297458 0.152617 9.61144 -14.5924
133 2 N 0.319034 0.25 0.981375 8.38269 -4.78746
134 2 N 0.258836 0.34429 0.0129177 6.13219 -5.70064
135 2 N 0.278186 0.249076 0.0775613 11.4469 -7.77676
136 2 N 0.321905 0.220115 0.169616 11.7765 -4.48073
137 2 N 0.272611 0.319037 0.176534 10.0453 -5.0875
138 2 N 0.332822 0.35976 0.0957944 6.15933 -5.59026
139 1 Zr 0.425954 0.219244 0.977882 7.37365 -19.112
140 1 Zr 0.577068 0.214822 0.983013 8.76326 -18.7512
141 1 Zr 0.503963 0.253932 0.0827877 7.3635 -12.8188
142 1 Zr 0.424815 0.350901 0.0941902 7.5998 -13.622
143 1 Zr 0.502327 0.355761 0.00630809 6.60016 -13.5409
144 1 Zr 0.580577 0.353723 0.0917331 7.21346 -13.6171
145 1 Zr 0.430522 0.169798 0.113618 13.6954 -17.5557
146 1 Zr 0.574766 0.1705 0.114648 12.2434 -17.3745
147 1 Zr 0.493349 0.344553 0.174249 7.98866 -13.832
148 2 N 0.505241 0.279241 0.00636704 4.42781 -5.15556
149 2 N 0.406149 0.347529 0.0178723 10.2281 -6.57539
150 2 N 0.582658 0.34683 0.00549397 6.96027 -6.15656
151 2 N 0.43014 0.27224 0.0871401 9.31524 -5.04214
152 2 N 0.577423 0.277036 0.0901103 9.90001 -5.26898
153 2 N 0.502387 0.263311 0.163267 6.66899 -4.86466
154 2 N 0.405302 0.334063 0.166573 9.22771 -6.43047
155 2 N 0.50149 0.348634 0.0932056 3.74464 -5.69151
156 2 N 0.588094 0.342684 0.172987 10.6214 -6.21922
157 1 Zr 0.737069 0.238286 0.99316 9.31253 -14.4729
158 1 Zr 0.669801 0.260664 0.0905511 8.39579 -16.1551
159 1 Zr 0.662478 0.346287 -0.00402931 5.86023 -13.6429
160 1 Zr 0.737048 0.330867 0.085359 9.86834 -13.7253
161 1 Zr 0.759806 0.257285 0.159664 9.13976 -14.5149
162 1 Zr 0.649299 0.315518 0.162053 11.6948 -14.7423
163 2 N 0.65418 0.270231 0.999809 9.96265 -5.29805
164 2 N 0.741802 0.327883 0.00306706 6.00811 -5.57375
165 2 N 0.729887 0.250426 0.0791625 7.76549 -6.89789
166 2 N 0.677163 0.235286 0.178796 10.3409 -5.61327
167 2 N 0.65959 0.349401 0.078955 3.96675 -6.08093
168 2 N 0.740639 0.332139 0.166628 5.66102 -5.73574
169 1 Zr 0.937892 0.252611 0.0188956 9.98322 -17.4555
170 1 Zr 0.827371 0.251178 0.0880803 4.86972 -14.708
171 1 Zr 0.823765 0.326527 0.991285 6.99196 -14.2257
172 1 Zr 0.889915 0.327463 0.0675072 7.44638 -13.6733
173 1 Zr 0.922454 0.249119 0.161374 6.82448 -13.8112
174 1 Zr 0.846091 0.335591 0.157702 6.12678 -13.5142
175 2 N 0.814641 0.249623 0.00804916 7.24477 -6.0409
176 2 N 0.897209 0.345553 0.997498 7.37261 -6.09872
177 2 N 0.907627 0.24773 0.0663648 12.8213 -7.67118
178 2 N 0.837576 0.249682 0.168667 7.31886 -5.89962
179 2 N 0.812775 0.336656 0.0816995 6.3562 -6.07251
180 2 N 0.91404 0.321332 0.141318 6.67858 -6.16157
181 1 Zr 0.0886758 0.47651 0.997114 8.66134 -19.006
182 1 Zr 0.980747 0.389755 0.0634522 10.0465 -13.8407
183 1 Zr 0.153991 0.408885 0.0838698 6.6583 -14.0573
184 1 Zr 0.00433104 0.513974 0.996296 6.42827 -13.3757
185 1 Zr 0.0964599 0.582624 0.00712484 7.42447 -13.7826
186 1 Zr 0.0552268 0.487386 0.0727923 9.21127 -14.1553
187 1 Zr 0.0159323 0.604449 0.0609864 9.62998 -13.9118
188 1 Zr 0.162629 0.463339 0.00072583 6.17042 -19.8903
189 1 Zr 0.157743 0.576097 0.0966299 7.75843 -14.7026
190 1 Zr 0.0758792 0.381365 0.206351 8.64719 -19.4006
191 1 Zr 0.00472881 0.503301 0.186312 5.52991 -13.133
192 1 Zr 0.0806022 0.618935 0.201511 9.02887 -19.6391
193 1 Zr 0.119528 0.493817 0.150141 12.9271 -14.316
194 2 N 0.97894 0.447704 0.0255758 8.36919 -5.80837
195 2 N 0.175775 0.412523 0.997635 6.01188 -8.82382
196 2 N 0.0785013 0.520561 0.966621 10.61 -9.78966
197 2 N 0.981157 0.58453 0.984111 11.7132 -5.83814
198 2 N 0.173323 0.582799 0.997291 8.23936 -5.56958
199 2 N 0.070076 0.407036 0.070211 8.04239 -5.14642
200 2 N 0.987159 0.403017 0.134118 8.19492 -4.56802
201 2 N 0.178406 0.394086 0.154665 12.7888 -7.50965
202 2 N 0.00138581 0.531359 0.0664826 9.60252 -7.78076
203 2 N 0.0869752 0.588187 0.079402 9.77502 -6.16663
204 2 N 0.0595128 0.494979 0.162204 6.51295 -7.66775
205 2 N 0.00455651 0.600394 0.137907 5.67512 -5.11869
206 2 N 0.131386 0.490451 0.0932979 8.66892 -7.53313
207 2 N 0.183542 0.592856 0.159395 10.7381 -8.08763
208 1 Zr 0.252756 0.42536 0.99642 5.30573 -13.9263
209 1 Zr 0.345506 0.433737 0.0984752 7.49821 -13.862
210 1 Zr 0.253505 0.589937 0.0031636 7.06955 -13.8097
211 1 Zr 0.202334 0.505452 0.059326 6.12493 -15.6503
212 1 Zr 0.334172 0.502983 0.995083 6.06211 -13.4922
213 1 Zr 0.339024 0.570601 0.104172 7.99961 -13.3223
214 1 Zr 0.255015 0.414242 0.156012 8.38628 -14.9973
215 1 Zr 0.253421 0.577336 0.170199 10.5602 -14.2915
216 1 Zr 0.29927 0.497969 0.139522 6.40606 -15.6175
217 2 N 0.33642 0.426122 0.0140182 7.40988 -5.59376
218 2 N 0.258747 0.509222 0.000818202 6.72303 -6.00139
219 2 N 0.336643 0.582839 0.00553192 3.03192 -5.7453
220 2 N 0.243798 0.427703 0.0740342 8.91458 -5.39264
221 2 N 0.330569 0.421998 0.18019 9.35396 -6.07774
222 2 N 0.257846 0.577411 0.0803692 8.46149 -5.59341
223 2 N 0.221406 0.491834 0.161971 7.09561 -5.15418
224 2 N 0.331779 0.501851 0.0865825 10.8416 -7.7927
225 2 N 0.33661 0.586805 0.176066 5.4161 -5.89398
226 1 Zr 0.418978 0.420695 0.0209067 7.19547 -13.7945
227 1 Zr 0.577127 0.422356 0.0128004 7.06357 -13.659
228 1 Zr 0.508328 0.455316 0.116748 8.13784 -14.8196
229 1 Zr 0.423022 0.579199 0.0121129 7.28392 -13.8202
230 1 Zr 0.406871 0.507114 0.0817726 9.29966 -14.0828
231 1 Zr 0.494326 0.510601 0.992667 7.11304 -13.7944
232 1 Zr 0.57109 0.575106 0.0121331 9.28833 -13.7115
233 1 Zr 0.603624 0.50494 0.0698685 8.21228 -14.6799
234 1 Zr 0.497813 0.553392 0.130262 7.16687 -15.9165
235 1 Zr 0.40436 0.413937 0.172766 9.82524 -14.9832
236 1 Zr 0.585924 0.421222 0.168474 6.46455 -13.5895
237 1 Zr 0.40801 0.590891 0.169685 9.03935 -12.9521
238 1 Zr 0.504824 0.494923 0.193762 9.51655 -21.676
239 1 Zr 0.587441 0.57493 0.180656 7.42282 -13.5389
240 2 N 0.496633 0.433571 0.00939822 5.58512 -5.57164
241 2 N 0.414813 0.501897 1.00067 6.67253 -6.27675
242 2 N 0.579423 0.497725 -0.00039395 6.82899 -6.88214
243 2 N 0.49704 0.587912 0.9953 7.71334 -5.86002
244 2 N 0.437014 0.434563 0.0949218 9.72799 -6.20181
245 2 N 0.56725 0.433411 0.0922018 10.282 -6.77378
246 2 N 0.516683 0.411444 0.197492 8.81981 -5.60808
247 2 N 0.430621 0.585641 0.0977811 9.60481 -6.1678
248 2 N 0.40328 0.510351 0.164199 10.4997 -4.81225
249 2 N 0.497398 0.517198 0.0706872 9.47089 -5.79979
250 2 N 0.569458 0.575278 0.105081 8.73403 -6.01054
251 2 N 0.609099 0.503881 0.165796 8.25073 -5.73417
252 2 N 0.508902 0.573354 0.222201 12.22 -4.72429
253 1 Zr 0.736529 0.420289 0.985914 8.01038 -13.9955
254 1 Zr 0.657621 0.426697 0.0881342 9.41007 -14.0004
255 1 Zr 0.647787 0.511995 0.98241 12.9308 -14.0084
256 1 Zr 0.751084 0.576249 0.00213268 6.96602 -14.0657
257 1 Zr 0.755374 0.497561 0.0807829 3.54982 -13.8086
258 1 Zr 0.66335 0.57543 0.0951426 10.2102 -13.9381
259 1 Zr 0.752255 0.414707 0.161796 4.28767 -14.3804
260 1 Zr 0.688936 0.493375 0.160255 6.91098 -13.9532
261 1 Zr 0.750398 0.588317 0.17192 8.41007 -14.1429
262 2 N 0.660245 0.429921 0.00148594 5.30937 -5.82799
263 2 N 0.740912 0.498562 0.00219588 5.77765 -5.99998
264 2 N 0.671393 0.578688 0.00909746 6.86424 -5.62889
265 2 N 0.741664 0.416373 0.0776925 3.49261 -5.78825
266 2 N 0.671887 0.414141 0.164215 6.23938 -6.04322
267 2 N 0.676527 0.501134 0.0853195 6.2498 -6.65913
268 2 N 0.749186 0.578499 0.0858882 4.396 -6.10647
269 2 N 0.771003 0.503776 0.162671 4.51369 -5.5392
270 2 N 0.672215 0.593255 0.168551 6.62452 -5.87152
271 1 Zr 0.943065 0.415546 0.965037 7.9668 -13.0578
272 1 Zr 0.823539 0.422344 0.0732414 4.36056 -14.1702
273 1 Zr 0.821846 0.488468 0.989291 5.35147 -13.7573
274 1 Zr 0.901764 0.550812 0.990007 9.19918 -16.7364
275 1 Zr 0.941628 0.529269 0.0644795 5.8955 -17.2546
276 1 Zr 0.829575 0.588883 0.0760487 9.61861 -13.9627
277 1 Zr 0.941136 0.392142 0.202238 6.09902 -21.2477
278 1 Zr 0.890443 0.508139 0.128256 8.64621 -18.7014
279 1 Zr 0.931298 0.620352 0.201342 10.0811 -19.492
280 2 N 0.811599 0.408427 0.998821 9.69672 -5.57197
281 2 N 0.891024 0.468296 0.984036 10.3044 -5.01936
282 2 N 0.838704 0.582402 0.998828 8.72195 -6.31196
283 2 N 0.904118 0.406974 0.0791752 9.12802 -5.44095
284 2 N 0.829261 0.409957 0.157663 10.1707 -7.2988
285 2 N 0.836219 0.503117 0.0729864 8.04947 -5.78724
286 2 N 0.902812 0.598106 0.0851357 8.8758 -5.31695
287 2 N 0.95343 0.496776 0.159149 11.3301 -6.68574
288 2 N 0.826662 0.600163 0.159552 10.8447 -6.76147
289 1 Zr 0.995135 0.662354 0.98754 6.75371 -18.3413
290 1 Zr 0.0788259 0.736741 0.00785428 11.079 -13.4159
291 1 Zr 0.093506 0.670436 0.0841336 6.51209 -13.5833
292 1 Zr 0.987938 0.758188 0.0811289 8.51267 -13.6135
293 1 Zr 0.174368 0.669376 0.996551 6.48609 -13.8873
294 1 Zr 0.181829 0.738885 0.0938248 7.73895 -14.051
295 1 Zr 0.00544624 0.668892 0.164122 7.62617 -13.2067
296 1 Zr 0.0838271 0.739608 0.18079 10.2622 -14.6368
297 1 Zr 0.156057 0.67188 0.166251 7.98737 -14.4051
298 2 N 0.0998704 0.662364 0.0078556 6.44435 -6.3541
299 2 N 0.00783887 0.754908 0.00714705 7.91298 -7.49814
300 2 N 0.182371 0.757515 -0.00114483 7.65607 -7.28732
301 2 N 0.00885364 0.685804 0.0805531 6.78878 -5.87647
302 2 N 0.0992544 0.747112 0.0987504 10.5785 -5.78947
303 2 N 0.0814262 0.659056 0.160587 8.12198 -8.18304
304 2 N 0.00610387 0.753222 0.159034 8.89936 -5.921
305 2 N 0.175759 0.658593 0.0782577 9.99313 -5.97469
306 2 N 0.178538 0.754036 0.171316 8.72579 -5.81993
307 1 Zr 0.236204 0.781066 0.992028 8.62113 -16.7655
308 1 Zr 0.254224 0.657404 0.0890122 9.61973 -13.7179
309 1 Zr 0.333132 0.665489 0.0140242 7.5497 -13.9987
310 1 Zr 0.332045 0.729683 0.0871444 7.59601 -17.6802
311 1 Zr 0.253758 0.745735 0.169061 9.66017 -13.7333
312 1 Zr 0.369623 0.690916 0.159637 9.53608 -14.8535
313 2 N 0.251872 0.66985 0.00708718 8.94945 -5.98969
314 2 N 0.327895 0.740943 0.992104 10.5518 -5.0349
315 2 N 0.271929 0.737343 0.0934011 10.3787 -7.52005
316 2 N 0.26128 0.663275 0.163408 6.72286 -5.42626
317 2 N 0.341517 0.645376 0.0922803 5.91742 -6.0759
318 2 N 0.334836 0.768007 0.173681 9.56635 -5.97749
319 1 Zr 0.402931 0.782977 0.995301 6.84603 -19.2518
320 1 Zr 0.422771 0.661799 0.0810396 7.40722 -13.4541
321 1 Zr 0.51259 0.664376 0.991745 8.9069 -14.1385
322 1 Zr 0.593111 0.778353 0.996171 8.63827 -16.926
323 1 Zr 0.590503 0.648368 0.0897991 6.86614 -13.3395
324 1 Zr 0.517056 0.737711 0.0734905 8.53916 -13.178
325 1 Zr 0.424712 0.817208 0.123863 9.37563 -17.31
326 1 Zr 0.496572 0.642701 0.160026 13.9209 -14.9591
327 1 Zr 0.570363 0.824623 0.12653 8.98942 -17.1777
328 2 N 0.419099 0.657206 0.00170397 6.26003 -5.61952
329 2 N 0.589732 0.647519 0.00542118 5.30244 -5.84926
330 2 N 0.546259 0.740823 0.991685 4.76425 -6.7754
331 2 N 0.439188 0.737552 0.0796736 7.93742 -5.21563
332 2 N 0.434581 0.670434 0.158801 4.26653 -6.73939
333 2 N 0.50669 0.658287 0.0713375 8.03405 -5.55554
334 2 N 0.587436 0.722424 0.0888678 7.30592 -5.47641
335 2 N 0.582148 0.659042 0.168899 7.8324 -6.25643
336 2 N 0.514885 0.760644 0.156722 7.83028 -4.53422
337 1 Zr 0.666105 0.660512 0.00383161 7.78156 -13.6893
338 1 Zr 0.75744 0.778946 0.0075667 7.45532 -16.4543
339 1 Zr 0.756056 0.656748 0.0937562 7.88355 -13.9489
340 1 Zr 0.677156 0.738239 0.0985913 9.44825 -16.068
341 1 Zr 0.646975 0.683713 0.166482 10.8898 -15.1185
342 1 Zr 0.75961 0.750975 0.166098 6.91239 -14.1464
343 2 N 0.753526 0.658575 0.00820021 6.90568 -5.58322
344 2 N 0.675275 0.737988 1.15838e-05 12.0743 -4.94835
345 2 N 0.671189 0.65216 0.0838882 6.35934 -6.01437
346 2 N 0.739863 0.738866 0.089627 10.2278 -6.62799
347 2 N 0.746389 0.670156 0.168675 6.89865 -5.69361
348 2 N 0.666052 0.774859 0.178651 10.6604 -5.65911
349 1 Zr 0.832671 0.668649 0.000139925 6.6741 -14.1117
350 1 Zr 0.927826 0.736076 0.99921 9.02239 -14.2143
351 1 Zr 0.926299 0.669433 0.0826657 6.3705 -13.5159
352 1 Zr 0.831833 0.753389 0.0949972 8.82779 -14.1461
353 1 Zr 0.853424 0.678835 0.165879 9.23101 -14.3451
354 1 Zr 0.92829 0.746634 0.181836 8.23087 -15.0537
355 2 N 0.905328 0.664387 0.00899973 8.92325 -6.15719
356 2 N 0.812268 0.750623 0.0114508 7.92438 -6.86891
357 2 N 0.833164 0.67894 0.0863056 4.77557 -5.92376
358 2 N 0.911298 0.745877 0.102455 7.76316 -6.35753
359 2 N 0.931436 0.660557 0.160638 7.4527 -7.98824
360 2 N 0.837102 0.762905 0.175611 4.81779 -5.71501
361 1 Zr 0.99565 0.852661 0.0297629 6.99876 -16.0767
362 1 Zr 0.0751745 0.924665 0.00208721 5.98232 -13.0913
363 1 Zr 0.0702382 0.811828 0.0694349 12.9958 -13.6266
364 1 Zr 0.0133572 0.94535 0.0856691 12.4683 -16.8268
365 1 Zr 0.16129 0.832682 0.014517 8.16915 -13.9237
366 1 Zr 0.136578 0.900672 0.0987264 11.9302 -19.2898
367 1 Zr 0.975994 0.872715 0.181394 8.62067 -17.3683
368 1 Zr 0.127783 0.969 0.204574 6.53659 -18.6871
369 1 Zr 0.146835 0.84629 0.162384 11.7228 -14.2176
370 2 N 0.0908848 0.808614 0.999766 8.49152 -5.86735
371 2 N 0.00804845 0.92826 0.0316444 13.6634 -7.98728
372 2 N 0.150796 0.91785 0.988104 8.57196 -5.52055
373 2 N 0.000841236 0.835502 0.089558 7.27171 -6.69444
374 2 N 0.0914854 0.881094 0.0635417 7.69953 -6.93856
375 2 N 0.0898332 0.818986 0.180479 10.4091 -5.60781
376 2 N 0.0564789 0.931894 0.182395 7.2234 -4.77147
377 2 N 0.180233 0.81269 0.0875522 10.4199 -5.42031
378 2 N 0.191945 0.91016 0.179555 8.51844 -5.23254
379 1 Zr 0.209262 0.919164 0.060121 12.2958 -16.3684
380 1 Zr 0.272856 0.803174 0.0673979 7.61968 -14.4263
381 1 Zr 0.323743 0.860807 0.997649 9.46306 -12.8915
382 1 Zr 0.338987 0.906807 0.0790236 8.00907 -13.6106
383 1 Zr 0.268248 0.898772 0.190188 10.3678 -13.5503
384 1 Zr 0.327155 0.831105 0.145211 9.32915 -14.0505
385 2 N 0.241848 0.870601 0.0171913 9.0436 -5.50841
386 2 N 0.322492 0.934354 0.985806 8.51027 -5.39661
387 2 N 0.270675 0.899721 0.11363 9.95293 -5.73456
388 2 N 0.253565 0.825801 0.179568 7.13461 -5.74203
389 2 N 0.330395 0.836263 0.065952 8.29181 -9.77281
390 2 N 0.340822 0.926277 0.183664 9.35265 -6.36793
391 1 Zr 0.432118 0.913866 0.00568857 10.5905 -17.708
392 1 Zr 0.368781 0.796828 0.0676067 9.22432 -19.7292
393 1 Zr 0.480887 0.799728 0.998264 8.80412 -13.3429
394 1 Zr 0.598988 0.934026 0.00562689 10.2894 -13.0938
395 1 Zr 0.627729 0.801653 0.0717255 7.7 -19.3741
396 1 Zr 0.48463 0.916096 0.0631493 11.4996 -15.3068
397 1 Zr 0.422987 0.917586 0.174193 7.87898 -13.7126
398 1 Zr 0.494858 0.846218 0.0978032 12.9842 -19.0175
399 1 Zr 0.594156 0.932083 0.17206 6.39963 -13.8495
400 2 N 0.40222 0.868083 0.00244112 9.4418 -7.42598
401 2 N 0.602039 0.863391 0.00157849 8.01487 -5.24775
402 2 N 0.52867 0.923795 0.998118 6.90589 -5.68488
403 2 N 0.407714 0.915225 0.103767 8.22728 -5.59731
404 2 N 0.403851 0.841233 0.171068 9.38792 -7.51629
405 2 N 0.508774 0.811188 0.0516312 7.11265 -7.74384
406 2 N 0.581923 0.916791 0.0875456 8.02698 -4.67179
407 2 N 0.591365 0.849506 0.17388 9.50033 -7.0275
408 2 N 0.513962 0.923833 0.182527 8.55923 -6.74483
409 1 Zr 0.674277 0.868628 5.63201e-05 8.35537 -13.169
410 1 Zr 0.79228 0.917241 0.983788 9.78201 -16.0295
411 1 Zr 0.746857 0.830348 0.0814808 9.96939 -14.4536
412 1 Zr 0.691767 0.940727 0.057003 11.0852 -13.7285
413 1 Zr 0.672914 0.836294 0.146241 10.4383 -14.4063
414 1 Zr 0.750242 0.906272 0.177996 9.01161 -13.997
415 2 N 0.763374 0.86757 0.00689216 7.81161 -6.41823
416 2 N 0.685429 0.94141 0.992796 7.27851 -7.17832
417 2 N 0.667244 0.842883 0.0679306 7.58816 -7.76038
418 2 N 0.746723 0.903141 0.101341 10.8791 -5.28922
419 2 N 0.755649 0.830524 0.173055 5.22128 -6.18321
420 2 N 0.672968 0.916965 0.173323 9.14534 -6.03035
421 1 Zr 0.844842 0.829061 0.00316661 11.697 -13.8351
422 1 Zr 0.935332 0.914962 1.00246 8.86928 -14.1799
423 1 Zr 0.910023 0.816625 0.107352 9.41959 -14.1141
424 1 Zr 0.838031 0.919796 0.0863976 8.54639 -13.8397
425 1 Zr 0.842579 0.851413 0.170139 10.7974 -14.5759
426 1 Zr 0.956745 0.929688 0.136135 4.81135 -20.5537
427 2 N 0.914224 0.811806 0.031547 8.82077 -5.57225
428 2 N 0.868254 0.902868 0.0211672 9.53141 -5.99448
429 2 N 0.831532 0.836798 0.0931681 5.65588 -5.95745
430 2 N 0.911966 0.916084 0.110522 12.467 -8.23672
431 2 N 0.934459 0.834165 0.189189 14.0783 -8.09597
432 2 N 0.822735 0.924011 0.166651 9.10445 -6.26694
433 1 Zr 0.0701939 0.0133727 0.24424 12.1557 -16.4675
434 1 Zr 0.960489 0.0979587 0.25857 9.05423 -16.3877
435 1 Zr 0.172651 0.0882611 0.264158 4.94191 -13.6989
436 1 Zr 0.0968416 0.184195 0.247403 11.2809 -14.3093
437 1 Zr 0.994469 0.00491761 0.326454 8.97954 -15.6719
438 1 Zr 0.0871533 0.0951653 0.332193 6.42742 -13.0592
439 1 Zr 0.149543 0.997417 0.337142 7.55969 -12.7534
440 1 Zr 0.980524 0.163557 0.334757 9.27167 -14.0844
441 1 Zr 0.169004 0.148442 0.344327 7.23649 -13.3306
442 2 N 0.00467714 0.96836 0.266015 7.51421 -5.77747
443 2 N 0.0880308 0.101372 0.246399 5.01697 -5.33449
444 2 N 0.0806297 0.015857 0.303502 8.71043 -7.00992
445 2 N 0.0156476 0.0927809 0.327765 5.81781 -5.90883
446 2 N 0.179107 0.0124455 0.267209 9.23341 -5.72594
447 2 N 0.157648 0.0757091 0.350086 8.52679 -8.35106
448 2 N 0.980404 0.157616 0.25746 12.4659 -6.53554
449 2 N 0.0753077 0.176564 0.322433 8.15044 -5.50299
450 2 N 0.167903 0.164303 0.273324 7.02709 -6.80747
451 1 Zr 0.254751 0.980207 0.262367 8.54497 -13.8467
452 1 Zr 0.339264 0.0774699 0.25593 7.2793 -13.8733
453 1 Zr 0.254082 0.164612 0.261497 7.28306 -14.2694
454 1 Zr 0.265535 0.0950917 0.331985 9.15134 -16.1951
455 1 Zr 0.34516 0.0102431 0.341443 4.76952 -13.4224
456 1 Zr 0.320336 0.161 0.358049 12.6054 -14.8227
457 2 N 0.257684 0.0867073 0.272089 5.46717 -7.20349
458 2 N 0.266082 0.00127117 0.338703 13.1342 -5.188
459 2 N 0.338454 0.998069 0.260243 6.7995 -5.83583
460 2 N 0.362263 0.0865729 0.338762 6.74808 -5.53306
461 2 N 0.238539 0.178751 0.340219 10.4079 -5.8522
462 2 N 0.33335 0.153985 0.247422 9.53465 -5.43238
463 1 Zr 0.418647 0.993426 0.241712 9.75754 -13.8204
464 1 Zr 0.631434 0.998465 0.283534 8.99034 -17.0332
465 1 Zr 0.497008 0.0952703 0.233394 7.22876 -12.7835
466 1 Zr 0.42126 0.169406 0.238433 4.70138 -13.5974
467 1 Zr 0.582415 0.179836 0.243896 5.64261 -13.8259
468 1 Zr 0.424652 0.12143 0.377963 7.62671 -17.4079
469 1 Zr 0.504577 0.96653 0.302635 10.8383 -15.1628
470 1 Zr 0.569535 0.0958209 0.357402 7.97782 -15.0008
471 1 Zr 0.505428 0.167255 0.308295 8.55416 -13.4459
472 2 N 0.415716 0.0788752 0.243495 6.11524 -5.4601
473 2 N 0.425799 -0.000665527 0.317414 10.7938 -4.97095
474 2 N 0.503704 0.0145553 0.241047 7.40397 -5.38295
475 2 N 0.581547 0.0949457 0.241685 10.3819 -7.45867
476 2 N 0.563437 -0.00293037 0.337215 10.0588 -5.02442
477 2 N 0.498278 0.0935447 0.305003 6.03434 -5.70096
478 2 N 0.423147 0.165675 0.313371 6.72597 -5.67466
479 2 N 0.500541 0.172438 0.215141 5.6146 -5.62806
480 2 N 0.581634 0.170235 0.316743 6.73459 -5.99242
481 1 Zr 0.766425 0.00271937 0.259003 8.91108 -14.3887
482 1 Zr 0.630378 0.0738524 0.260694 9.01125 -17.2544
483 1 Zr 0.745801 0.183007 0.240288 5.81535 -13.9544
484 1 Zr 0.675667 0.976187 0.347373 14.8707 -16.8658
485 1 Zr 0.734108 0.103205 0.326227 9.72308 -16.1513
486 1 Zr 0.686753 0.169328 0.361657 8.94089 -14.6854
487 2 N 0.708234 0.00581339 0.220237 7.6675 -5.33358
488 2 N 0.743482 0.10747 0.264839 10.5887 -8.08619
489 2 N 0.740611 0.0181356 0.320539 8.86301 -5.57606
490 2 N 0.649791 0.0834505 0.34307 7.29178 -5.36752
491 2 N 0.663271 0.180036 0.257817 8.97764 -5.40588
492 2 N 0.761902 0.189181 0.326841 9.858 -5.78909
493 1 Zr 0.945003 0.994249 0.180599 15.705 -16.9211
494 1 Zr 0.818768 0.083595 0.244255 7.70088 -14.1002
495 1 Zr 0.902583 0.183023 0.235631 6.87954 -14.3849
496 1 Zr 0.860794 0.00512879 0.319742 14.3965 -13.9677
497 1 Zr 0.93159 0.0657031 0.331501 7.75288 -17.8271
498 1 Zr 0.830248 0.159654 0.326168 8.31218 -13.6781
499 2 N 0.844226 0.00682708 0.246975 4.93768 -6.35355
500 2 N 0.893472 0.09938 0.233277 10.5858 -5.97747
501 2 N 0.933419 0.966206 0.329803 6.59165 -6.9229
502 2 N 0.840066 0.0819564 0.32936 9.63038 -7.77455
503 2 N 0.827668 0.180106 0.248902 4.66851 -6.18254
504 2 N 0.902295 0.189816 0.322737 10.4099 -5.76617
505 1 Zr 0.00349536 0.269844 0.244875 9.95763 -13.8758
506 1 Zr 0.176871 0.232264 0.280333 10.5276 -13.6893
507 1 Zr 0.0961243 0.330226 0.266761 9.83889 -16.6561
508 1 Zr 0.0710337 0.250743 0.347195 8.23126 -13.734
509 1 Zr 0.991614 0.330985 0.351784 7.44635 -13.4285
510 1 Zr 0.157428 0.350892 0.327796 11.3158 -14.2431
511 2 N 0.0759994 0.273588 0.267056 11.2774 -7.14934
512 2 N 0.990274 0.246136 0.322216 8.11345 -5.72288
513 2 N 0.146539 0.259478 0.345631 10.737 -5.59671
514 2 N 0.999018 0.34405 0.274524 11.3383 -5.1628
515 2 N 0.0710101 0.336926 0.352684 4.65393 -5.75458
516 2 N 0.179257 0.328197 0.232459 7.63367 -6.24462
517 1 Zr 0.333793 0.231234 0.245167 5.8999 -13.6948
518 1 Zr 0.254857 0.334482 0.249968 7.36096 -13.7106
519 1 Zr 0.251616 0.25677 0.350749 8.80391 -15.2094
520 1 Zr 0.320794 0.315737 0.328374 9.92936 -15.5948
521 2 N 0.251267 0.248721 0.255788 9.24533 -5.34523
522 2 N 0.332914 0.223296 0.321082 8.10717 -5.93765
523 2 N 0.22698 0.332826 0.332203 6.68401 -6.11809
524 2 N 0.330361 0.320724 0.262059 7.40204 -6.00601
525 1 Zr 0.493079 0.246082 0.239729 4.45909 -13.5838
526 1 Zr 0.40776 0.318778 0.245199 6.48163 -13.0095
527 1 Zr 0.573175 0.342774 0.254801 9.71776 -15.0422
528 1 Zr 0.407091 0.244917 0.313491 9.32988 -13.4599
529 1 Zr 0.578468 0.247677 0.322511 3.93352 -13.8075
530 1 Zr 0.496866 0.33431 0.331123 7.77416 -14.1621
531 2 N 0.413541 0.242613 0.22073 6.8607 -5.79593
532 2 N 0.582486 0.264867 0.245574 8.50787 -5.5684
533 2 N 0.495485 0.248671 0.315108 10.2947 -5.6601
534 2 N 0.415736 0.321848 0.322187 6.11277 -5.63036
535 2 N 0.501169 0.327136 0.247291 6.31818 -5.99749
536 2 N 0.586224 0.320193 0.349579 6.69939 -7.13436
537 1 Zr 0.669034 0.251171 0.253366 9.79189 -13.5514
538 1 Zr 0.750458 0.344707 0.244762 6.84502 -13.7932
539 1 Zr 0.747993 0.265758 0.33163 7.36995 -13.7991
540 1 Zr 0.669541 0.33025 0.324602 3.79056 -14.3041
541 2 N 0.753743 0.262054 0.248035 4.16867 -5.91014
542 2 N 0.662516 0.245175 0.334899 7.67071 -5.61933
543 2 N 0.665477 0.340745 0.246515 8.55253 -5.64256
544 2 N 0.749927 0.346086 0.328739 3.90316 -6.00416
545 1 Zr 0.839549 0.255611 0.252283 7.79134 -14.2295
546 1 Zr 0.908616 0.339535 0.253728 9.6461 -16.5864
547 1 Zr 0.913502 0.268319 0.322581 7.16648 -13.8973
548 1 Zr 0.837046 0.363555 0.3049 11.5418 -14.6087
549 2 N 0.918844 0.280861 0.240139 8.77668 -6.98394
550 2 N 0.830913 0.272088 0.328802 5.12023 -5.56626
551 2 N 0.822386 0.338252 0.227581 9.45485 -6.01924
552 2 N 0.911639 0.345533 0.343285 4.36944 -6.19587
553 1 Zr 0.00777574 0.430498 0.226089 7.54949 -19.0219
554 1 Zr 0.14019 0.424003 0.18486 10.0021 -17.3171
555 1 Zr 0.084356 0.497509 0.243117 7.18414 -13.2961
556 1 Zr 0.00634414 0.578738 0.216562 7.79622 -19.0441
557 1 Zr 0.139237 0.566042 0.184256 12.5809 -16.9843
558 1 Zr 0.0883169 0.417476 0.341334 7.08487 -13.6304
559 1 Zr -0.00147013 0.48937 0.34713 6.6949 -13.6561
560 1 Zr 0.0891863 0.574448 0.344816 8.90692 -13.483
561 1 Zr 0.157632 0.495221 0.326613 10.2375 -13.3123
562 2 N 0.107683 0.435737 0.268255 9.82529 -5.69584
563 2 N 0.996474 0.411043 0.356364 8.56532 -5.90636
564 2 N 0.163831 0.41538 0.348572 5.58829 -5.98011
565 2 N 0.00575829 0.469221 0.27313 9.54791 -6.33767