ITEM: TIMESTEP
313
ITEM: NUMBER OF ATOMS
999
ITEM: BOX BOUNDS pp pp pp
0.0000000000000000e+00 2.2699999999999999e+01
0.0000000000000000e+00 2.2699999999999999e+01
0.0000000000000000e+00 2.2699999999999999e+01
ITEM: ATOMS id type element xs ys zs c_csym c_eng
2 1 Zr 0.077624 0.077624 1.07254e-13 11.6766 -17.679
3 1 Zr 0.077624 1.37168e-13 0.077624 11.6766 -17.679
4 1 Zr 1.40394e-14 0.077624 0.077624 11.6766 -17.679
5 1 Zr 0.184864 1.20822e-14 1 9.6071 -13.2135
6 1 Zr 0.209678 0.104053 0.104053 5.76077 -12.4184
7 1 Zr 1.74995e-13 0.184864 1 9.6071 -13.2135
8 1 Zr 0.104053 0.209678 0.104053 5.76077 -12.4184
9 1 Zr 0.143029 0.143029 5.30107e-13 5.73073 -12.4082
10 1 Zr 1.08301e-13 1 0.184864 9.6071 -13.2135
11 1 Zr 0.104053 0.104053 0.209678 5.76077 -12.4184
12 1 Zr 0.143029 3.98986e-13 0.143029 5.73073 -12.4082
13 1 Zr 4.13476e-13 0.143029 0.143029 5.73073 -12.4082
14 1 Zr 0.226692 0.226693 0.2266 8.59464 -12915.6
15 2 N 0.111753 1 1 13.0465 -17.6033
16 2 N 1.48922e-13 0.111753 5.2605e-14 13.0465 -17.6033
17 2 N 0.208375 0.0969802 1 9.6987 -12.8075
18 2 N 0.0969802 0.208375 1 9.6987 -12.8075
19 2 N 9.01906e-14 1 0.111753 13.0465 -17.6033
20 2 N 0.105315 0.105315 0.105315 6.70256 -4.66851
21 2 N 0.0969802 1 0.208375 9.6987 -12.8075
22 2 N 1 0.0969802 0.208375 9.6987 -12.8075
23 2 N 0.208375 1 0.0969802 9.6987 -12.8075
24 2 N 0.188435 0.0919631 0.188435 10.6828 -6.4759
25 2 N 1 0.208375 0.0969802 9.6987 -12.8075
26 2 N 0.0919631 0.188435 0.188435 10.6826 -6.47584
27 2 N 0.188435 0.188435 0.0919631 10.6874 -6.47639
28 1 Zr 0.280024 0.111543 2.36853e-13 10.7515 -8.89288
29 1 Zr 0.280024 4.41358e-14 0.111543 10.7515 -8.89288
30 1 Zr 0.381245 1 1 14.0926 -14.6092
31 1 Zr 0.422344 0.0641222 0.0641222 7.64368 -9.63296
32 1 Zr 0.312443 0.220455 0.0952891 16.8458 -12.7939
33 1 Zr 0.381106 0.164169 1 10.2439 -6.18453
34 1 Zr 0.312443 0.0952891 0.220455 16.8403 -12.793
35 1 Zr 0.381106 -7.69798e-16 0.164169 10.2439 -6.18453
36 1 Zr 0.385321 0.183524 0.183524 18.3142 -12.702
37 2 N 0.325145 7.91848e-15 1 15.3952 -14.8251
38 2 N 0.419865 0.110272 1 9.92209 -20.341
39 2 N 0.313765 0.172888 1 14.8544 -16.8952
40 2 N 0.294929 0.0768296 0.0768296 7.8953 -7.89491
41 2 N 0.313765 1 0.172888 14.8544 -16.8952
42 2 N 0.419865 1 0.110272 9.92209 -20.341
43 2 N 0.384628 0.111326 0.207339 14.3437 -11.5663
44 2 N 0.226238 0.226874 0.226855 8.49025 -4020.41
45 2 N 0.384628 0.207339 0.111326 14.3437 -11.5663
46 1 Zr 0.5 0.126235 8.47528e-14 6.79029 -11.9448
47 1 Zr 0.5 1 0.126235 6.79029 -11.9448
48 1 Zr 0.618755 5.9735e-14 1 14.0926 -14.6092
49 1 Zr 0.719976 0.111543 1.82623e-13 10.7515 -8.89288
50 1 Zr 0.719976 1 0.111543 10.7515 -8.89288
51 1 Zr 0.577656 0.0641222 0.0641222 7.64368 -9.63296
52 1 Zr 0.5 0.201593 0.101943 3.88419 -12.4066
53 1 Zr 0.618894 0.164169 1 10.2439 -6.18453
54 1 Zr 0.687557 0.220455 0.0952891 16.8459 -12.7939
55 1 Zr 0.5 0.101943 0.201593 3.88419 -12.4066
56 1 Zr 0.618894 -8.40545e-14 0.164169 10.2439 -6.18453
57 1 Zr 0.687557 0.0952891 0.220455 16.8402 -12.793
58 1 Zr 0.614679 0.183524 0.183524 18.3142 -12.702
59 2 N 0.5 3.00287e-14 2.2414e-14 5.10775 -1.65995
60 2 N 0.674855 7.40796e-14 1 15.3952 -14.8251
61 2 N 0.580135 0.110272 1 9.92209 -20.341
62 2 N 0.5 0.212363 -2.1468e-15 10.9719 -15.5749
63 2 N 0.686235 0.172888 1 14.8544 -16.8952
64 2 N 0.5 0.111883 0.111883 11.6783 -8.03946
65 2 N 0.5 1 0.212363 10.9719 -15.5749
66 2 N 0.580135 3.83691e-14 0.110272 9.92209 -20.341
67 2 N 0.705071 0.0768296 0.0768296 7.8953 -7.89491
68 2 N 0.686235 1 0.172888 14.8544 -16.8952
69 2 N 0.615372 0.111326 0.207339 14.3437 -11.5663
70 2 N 0.5 0.203901 0.203901 5.08081 -12.3481
71 2 N 0.615372 0.207339 0.111326 14.3437 -11.5663
72 2 N 0.773759 0.226879 0.226858 8.49057 -4020.73
73 1 Zr 0.815136 2.43945e-13 1 9.6071 -13.2135
74 1 Zr 0.922376 0.077624 8.1725e-14 11.6766 -17.679
75 1 Zr 0.922376 6.62069e-14 0.077624 11.6766 -17.679
76 1 Zr 0.790322 0.104053 0.104053 5.76077 -12.4184
77 1 Zr 0.856971 0.143029 5.40878e-13 5.73073 -12.4082
78 1 Zr 0.895947 0.209678 0.104053 5.76077 -12.4184
79 1 Zr 0.856971 4.33079e-13 0.143029 5.73073 -12.4082
80 1 Zr 0.895947 0.104053 0.209678 5.76077 -12.4184
81 1 Zr 0.773309 0.226692 0.226599 8.59459 -12916.4
82 2 N 0.888247 1.83505e-13 1 13.0465 -17.6033
83 2 N 0.791625 0.0969802 1 9.6987 -12.8075
84 2 N 0.90302 0.208375 1 9.6987 -12.8075
85 2 N 0.791625 1 0.0969802 9.6987 -12.8075
86 2 N 0.894685 0.105315 0.105315 6.70256 -4.66851
87 2 N 0.90302 1 0.208375 9.6987 -12.8075
88 2 N 0.811565 0.0919631 0.188435 10.6828 -6.47591
89 2 N 0.811565 0.188435 0.0919631 10.6873 -6.47635
90 2 N 0.908037 0.188435 0.188435 10.6827 -6.47589
91 1 Zr 0.111543 0.280024 2.13885e-13 10.7515 -8.89288
92 1 Zr 1 0.280024 0.111543 10.7515 -8.89288
93 1 Zr 0.220455 0.312443 0.0952891 16.846 -12.7938
94 1 Zr 3.4898e-14 0.381245 1 14.0926 -14.6092
95 1 Zr 0.0641222 0.422344 0.0641222 7.64368 -9.63296
96 1 Zr 0.164169 0.381106 1 10.2439 -6.18453
97 1 Zr 0.0952891 0.312443 0.220455 16.8402 -12.7931
98 1 Zr 4.46589e-14 0.381106 0.164169 10.2439 -6.18453
99 1 Zr 0.183524 0.385321 0.183524 18.3142 -12.7021
100 2 N 6.07714e-14 0.325145 1 15.3952 -14.8251
101 2 N 0.172888 0.313765 1 14.8544 -16.8952
102 2 N 0.110272 0.419865 1 9.92209 -20.341
103 2 N 0.0768296 0.294929 0.0768296 7.8953 -7.89491
104 2 N 1 0.313765 0.172888 14.8544 -16.8952
105 2 N 0.226887 0.226243 0.226852 8.48934 -4021.25
106 2 N 3.93896e-15 0.419865 0.110272 9.92209 -20.341
107 2 N 0.111326 0.384628 0.207339 14.3437 -11.5663
108 2 N 0.207339 0.384628 0.111326 14.3437 -11.5663
109 1 Zr 0.288972 0.288972 1 10.9618 -14.4025
110 1 Zr 0.435862 0.324096 0.0772783 7.7283 -12.875
111 1 Zr 0.324096 0.435862 0.0772783 7.7283 -12.875
112 1 Zr 0.384573 0.384573 1.74268e-14 8.11447 4.00275
113 1 Zr 0.320157 0.320157 0.236268 12.142 -6.71716
114 1 Zr 0.392927 0.392927 0.192127 12.6842 -12.1818
115 2 N 0.399245 0.324644 1 13.7082 -17.8242
116 2 N 0.324644 0.399245 1 13.7082 -17.8242
117 2 N 0.286108 0.286108 0.0814396 15.8036 -16.1817
118 2 N 0.392747 0.308241 0.227715 8.69124 -14.8267
119 2 N 0.308241 0.392747 0.227715 8.69124 -14.8267
120 2 N 0.40059 0.40059 0.123728 15.2663 -13.1246
121 1 Zr 0.5 0.27526 1.00475e-13 13.0466 -13.1781
122 1 Zr 0.711028 0.288972 7.75173e-14 10.9618 -14.4025
123 1 Zr 0.564138 0.324096 0.0772783 7.7283 -12.875
124 1 Zr 0.5 0.413388 0.104705 5.96643 -11.4522
125 1 Zr 0.615427 0.384573 2.97075e-15 8.11447 4.00275
126 1 Zr 0.675904 0.435862 0.0772783 7.7283 -12.875
127 1 Zr 0.5 0.279251 0.189779 12.201 -8.98498
128 1 Zr 0.679843 0.320157 0.236268 12.142 -6.71717
129 1 Zr 0.607073 0.392927 0.192127 12.6842 -12.1818
130 2 N 0.600755 0.324644 1 13.7082 -17.8242
131 2 N 0.5 0.41508 1.42583e-13 6.22437 -4.96931
132 2 N 0.675356 0.399245 1 13.7082 -17.8242
133 2 N 0.5 0.283248 0.116434 10.6243 -14.8865
134 2 N 0.713892 0.286108 0.0814396 15.8036 -16.1817
135 2 N 0.607253 0.308241 0.227715 8.69125 -14.8267
136 2 N 0.5 0.407889 0.221474 13.6063 -8.14972
137 2 N 0.59941 0.40059 0.123728 15.2663 -13.1246
138 2 N 0.691759 0.392747 0.227715 8.69124 -14.8267
139 1 Zr 0.888457 0.280024 2.89028e-13 10.7515 -8.89288
140 1 Zr 0.779545 0.312443 0.0952891 16.8461 -12.7938
141 1 Zr 0.835831 0.381106 1 10.2439 -6.18453
142 1 Zr 0.935878 0.422344 0.0641222 7.64368 -9.63296
143 1 Zr 0.904711 0.312443 0.220455 16.8401 -12.7931
144 1 Zr 0.816476 0.385321 0.183524 18.3142 -12.7021
145 2 N 0.827112 0.313765 1 14.8544 -16.8952
146 2 N 0.889728 0.419865 1 9.92209 -20.341
147 2 N 0.92317 0.294929 0.0768296 7.8953 -7.89491
148 2 N 0.773113 0.226244 0.226853 8.48949 -4021.59
149 2 N 0.792661 0.384628 0.111326 14.3437 -11.5663
150 2 N 0.888674 0.384628 0.207339 14.3437 -11.5663
151 1 Zr 0.126235 0.5 1.0789e-13 6.79029 -11.9448
152 1 Zr -4.25842e-15 0.5 0.126235 6.79029 -11.9448
153 1 Zr 0.201593 0.5 0.101943 3.88419 -12.4066
154 1 Zr 1 0.618755 1 14.0926 -14.6092
155 1 Zr 0.111543 0.719976 2.9435e-13 10.7515 -8.89288
156 1 Zr 0.0641222 0.577656 0.0641222 7.64368 -9.63296
157 1 Zr -2.55286e-15 0.719976 0.111543 10.7515 -8.89288
158 1 Zr 0.164169 0.618894 1 10.2439 -6.18453
159 1 Zr 0.220455 0.687557 0.0952891 16.846 -12.7939
160 1 Zr 0.101943 0.5 0.201593 3.88419 -12.4066
161 1 Zr -8.98145e-14 0.618894 0.164169 10.2439 -6.18453
162 1 Zr 0.0952891 0.687557 0.220455 16.8401 -12.793
163 1 Zr 0.183524 0.614679 0.183524 18.3142 -12.7021
164 2 N 1.75235e-14 0.5 2.31184e-14 5.10775 -1.65995
165 2 N 0.212363 0.5 1.04112e-15 10.9719 -15.5749
166 2 N 0.110272 0.580135 1 9.92209 -20.341
167 2 N 1 0.674855 1 15.3952 -14.8251
168 2 N 0.172888 0.686235 1 14.8544 -16.8952
169 2 N 0.111883 0.5 0.111883 11.6783 -8.03946
170 2 N 1 0.5 0.212363 10.9719 -15.5749
171 2 N 0.203901 0.5 0.203901 5.08081 -12.3481
172 2 N 4.82258e-15 0.580135 0.110272 9.92209 -20.341
173 2 N 0.0768296 0.705071 0.0768296 7.8953 -7.89491
174 2 N 0.111326 0.615372 0.207339 14.3437 -11.5663
175 2 N 1 0.686235 0.172888 14.8544 -16.8952
176 2 N 0.207339 0.615372 0.111326 14.3437 -11.5663
177 2 N 0.226884 0.773757 0.226856 8.48988 -4021.15
178 1 Zr 0.27526 0.5 8.30161e-14 13.0466 -13.1781
179 1 Zr 0.413388 0.5 0.104705 5.96643 -11.4522
180 1 Zr 0.288972 0.711028 6.98627e-14 10.9618 -14.4025
181 1 Zr 0.324096 0.564138 0.0772783 7.7283 -12.875
182 1 Zr 0.384573 0.615427 6.00113e-16 8.11447 4.00275
183 1 Zr 0.435862 0.675904 0.0772783 7.7283 -12.875
184 1 Zr 0.279251 0.5 0.189779 12.201 -8.98498
185 1 Zr 0.320157 0.679843 0.236268 12.1419 -6.71717
186 1 Zr 0.392927 0.607073 0.192127 12.6842 -12.1818
187 2 N 0.41508 0.5 6.16639e-14 6.22437 -4.96931
188 2 N 0.324644 0.600755 1 13.7082 -17.8242
189 2 N 0.399245 0.675356 1.67848e-14 13.7082 -17.8242
190 2 N 0.283248 0.5 0.116434 10.6243 -14.8865
191 2 N 0.407889 0.5 0.221474 13.6063 -8.14972
192 2 N 0.286108 0.713892 0.0814396 15.8036 -16.1817
193 2 N 0.308241 0.607253 0.227715 8.69125 -14.8267
194 2 N 0.40059 0.59941 0.123728 15.2663 -13.1246
195 2 N 0.392747 0.691759 0.227715 8.69125 -14.8267
196 1 Zr 0.5 0.5 1.48768e-13 3.88592 -7.56121
197 1 Zr 0.72474 0.5 1.28148e-13 13.0466 -13.1781
198 1 Zr 0.586612 0.5 0.104705 5.96643 -11.4522
199 1 Zr 0.5 0.72474 7.54832e-14 13.0466 -13.1781
200 1 Zr 0.5 0.586612 0.104705 5.96643 -11.4522
201 1 Zr 0.615427 0.615427 1.21267e-14 8.11447 4.00275
202 1 Zr 0.711028 0.711028 1 10.9618 -14.4025
203 1 Zr 0.675904 0.564138 0.0772783 7.7283 -12.875
204 1 Zr 0.564138 0.675904 0.0772783 7.7283 -12.875
205 1 Zr 0.5 0.5 0.212867 5.01828 -12.3837
206 1 Zr 0.720749 0.5 0.189779 12.201 -8.98498
207 1 Zr 0.5 0.720749 0.189779 12.201 -8.98498
208 1 Zr 0.607073 0.607073 0.192127 12.6842 -12.1818
209 1 Zr 0.679843 0.679843 0.236268 12.142 -6.7175
210 2 N 0.58492 0.5 1.03383e-13 6.22437 -4.96931
211 2 N 0.5 0.58492 5.42939e-14 6.22437 -4.96931
212 2 N 0.675356 0.600755 1 13.7082 -17.8242
213 2 N 0.600755 0.675356 9.66261e-14 13.7082 -17.8242
214 2 N 0.5 0.5 0.110997 11.483 -12.245
215 2 N 0.716752 0.5 0.116434 10.6243 -14.8865
216 2 N 0.592111 0.5 0.221474 13.6063 -8.14972
217 2 N 0.5 0.716752 0.116434 10.6243 -14.8865
218 2 N 0.5 0.592111 0.221474 13.6063 -8.14972
219 2 N 0.59941 0.59941 0.123728 15.2663 -13.1246
220 2 N 0.713892 0.713892 0.0814396 15.8036 -16.1817
221 2 N 0.691759 0.607253 0.227715 8.69125 -14.8267
222 2 N 0.607253 0.691759 0.227715 8.69124 -14.8267
223 1 Zr 0.873765 0.5 1.51251e-13 6.79029 -11.9448
224 1 Zr 0.798407 0.5 0.101943 3.88419 -12.4066
225 1 Zr 0.835831 0.618894 1 10.2439 -6.18453
226 1 Zr 0.888457 0.719976 3.30859e-13 10.7515 -8.89288
227 1 Zr 0.935878 0.577656 0.0641222 7.64368 -9.63296
228 1 Zr 0.779545 0.687557 0.0952891 16.8398 -12.793
229 1 Zr 0.898057 0.5 0.201593 3.88419 -12.4066
230 1 Zr 0.816476 0.614679 0.183524 18.3142 -12.7021
231 1 Zr 0.904711 0.687557 0.220455 16.8461 -12.7938
232 2 N 0.787637 0.5 1 10.9719 -15.5749
233 2 N 0.889728 0.580135 1 9.92209 -20.341
234 2 N 0.827112 0.686235 1 14.8544 -16.8952
235 2 N 0.888117 0.5 0.111883 11.6783 -8.03946
236 2 N 0.796099 0.5 0.203901 5.08081 -12.3481
237 2 N 0.792661 0.615372 0.111326 14.3437 -11.5663
238 2 N 0.92317 0.705071 0.0768296 7.8953 -7.89491
239 2 N 0.888674 0.615372 0.207339 14.3437 -11.5663
240 2 N 0.773154 0.773761 0.226884 8.48869 -4021.03
241 1 Zr 1 0.815136 1 9.6071 -13.2135
242 1 Zr 0.077624 0.922376 2.16962e-13 11.6766 -17.679
243 1 Zr 0.104053 0.790322 0.104053 5.76077 -12.4184
244 1 Zr 8.54129e-14 0.922376 0.077624 11.6766 -17.679
245 1 Zr 0.143029 0.856971 5.55083e-13 5.73073 -12.4082
246 1 Zr 0.209678 0.895947 0.104053 5.76077 -12.4184
247 1 Zr 4.00853e-13 0.856971 0.143029 5.73073 -12.4082
248 1 Zr 0.104053 0.895947 0.209678 5.76077 -12.4184
249 1 Zr 0.226692 0.773308 0.226599 8.59465 -12916.4
250 2 N 0.0969802 0.791625 1 9.6987 -12.8075
251 2 N 1 0.888247 1 13.0465 -17.6033
252 2 N 0.208375 0.90302 1 9.6987 -12.8075
253 2 N 1 0.791625 0.0969802 9.6987 -12.8075
254 2 N 0.105315 0.894685 0.105315 6.70256 -4.66851
255 2 N 0.0919631 0.811565 0.188435 10.6827 -6.47589
256 2 N 1 0.90302 0.208375 9.6987 -12.8075
257 2 N 0.188435 0.811565 0.0919631 10.6873 -6.47635
258 2 N 0.188435 0.908037 0.188435 10.6828 -6.4759
259 1 Zr 0.280024 0.888457 3.40283e-13 10.7515 -8.89288
260 1 Zr 0.312443 0.779545 0.0952891 16.846 -12.7939
261 1 Zr 0.381106 0.835831 1 10.2439 -6.18453
262 1 Zr 0.422344 0.935878 0.0641222 7.64368 -9.63296
263 1 Zr 0.312443 0.904711 0.220455 16.8401 -12.793
264 1 Zr 0.385321 0.816476 0.183524 18.3142 -12.7021
265 2 N 0.313765 0.827112 1 14.8544 -16.8952
266 2 N 0.419865 0.889728 1 9.92209 -20.341
267 2 N 0.294929 0.92317 0.0768296 7.8953 -7.89491
268 2 N 0.226242 0.773118 0.226857 8.49013 -4020.31
269 2 N 0.384628 0.792661 0.111326 14.3437 -11.5663
270 2 N 0.384628 0.888674 0.207339 14.3437 -11.5663
271 1 Zr 0.5 0.873765 1.02113e-13 6.79029 -11.9448
272 1 Zr 0.5 0.798407 0.101943 3.88419 -12.4066
273 1 Zr 0.618894 0.835831 1 10.2439 -6.18453
274 1 Zr 0.719976 0.888457 2.94276e-13 10.7515 -8.89288
275 1 Zr 0.687557 0.779545 0.0952891 16.8392 -12.7933
276 1 Zr 0.577656 0.935878 0.0641222 7.64368 -9.63296
277 1 Zr 0.5 0.898057 0.201593 3.88419 -12.4066
278 1 Zr 0.614679 0.816476 0.183524 18.3142 -12.7021
279 1 Zr 0.687557 0.904711 0.220455 16.8392 -12.7935
280 2 N 0.5 0.787637 1 10.9719 -15.5749
281 2 N 0.686235 0.827112 1 14.8544 -16.8952
282 2 N 0.580135 0.889728 1 9.92209 -20.341
283 2 N 0.5 0.888117 0.111883 11.6783 -8.03946
284 2 N 0.5 0.796099 0.203901 5.08081 -12.3481
285 2 N 0.615372 0.792661 0.111326 14.3437 -11.5663
286 2 N 0.705071 0.92317 0.0768296 7.8953 -7.89491
287 2 N 0.773668 0.77317 0.226822 8.51683 -3269.24
288 2 N 0.615372 0.888674 0.207339 14.3437 -11.5663
289 1 Zr 0.856971 0.856971 5.68864e-13 5.73073 -12.4082
290 1 Zr 0.922376 0.922376 1.95125e-13 11.6766 -17.679
291 1 Zr 0.895947 0.790322 0.104053 5.76077 -12.4184
292 1 Zr 0.790322 0.895947 0.104053 5.76077 -12.4184
293 1 Zr 0.773401 0.773308 0.226691 8.59453 -12915.6
294 1 Zr 0.895947 0.895947 0.209678 5.76077 -12.4184
295 2 N 0.90302 0.791625 1 9.6987 -12.8075
296 2 N 0.791625 0.90302 1 9.6987 -12.8075
297 2 N 0.811565 0.811565 0.0919631 10.6829 -6.47594
298 2 N 0.894685 0.894685 0.105315 6.70256 -4.66851
299 2 N 0.908037 0.811565 0.188435 10.6873 -6.47635
300 2 N 0.811565 0.908037 0.188435 10.6826 -6.47585
301 1 Zr 0.111543 1.29842e-13 0.280024 10.7515 -8.89288
302 1 Zr 3.153e-14 0.111543 0.280024 10.7515 -8.89288
303 1 Zr 0.220455 0.0952891 0.312443 16.8391 -12.7935
304 1 Zr 0.0952891 0.220455 0.312443 16.8395 -12.7934
305 1 Zr 2.8744e-14 1 0.381245 14.0926 -14.6092
306 1 Zr 0.0641222 0.0641222 0.422344 7.64368 -9.63296
307 1 Zr 0.164169 1 0.381106 10.2439 -6.18453
308 1 Zr -8.06573e-15 0.164169 0.381106 10.2439 -6.18453
309 1 Zr 0.183524 0.183524 0.385321 18.3142 -12.7022
310 2 N 5.75303e-14 1 0.325145 15.3952 -14.8251
311 2 N 0.0768296 0.0768296 0.294929 7.8953 -7.89491
312 2 N 0.110272 1.05386e-14 0.419865 9.92209 -20.341
313 2 N 3.16906e-14 0.110272 0.419865 9.92209 -20.341
314 2 N 0.172888 -4.66622e-15 0.313765 14.8544 -16.8952
315 2 N 0.207339 0.111326 0.384628 14.3437 -11.5663
316 2 N 1 0.172888 0.313765 14.8544 -16.8952
317 2 N 0.111326 0.207339 0.384628 14.3437 -11.5663
318 2 N 0.226827 0.226832 0.226336 8.5174 -3267.1
319 1 Zr 0.288972 1.021e-14 0.288972 10.9618 -14.4025
320 1 Zr 0.435862 0.0772783 0.324096 7.7283 -12.875
321 1 Zr 0.320157 0.236268 0.320157 12.142 -6.71752
322 1 Zr 0.324096 0.0772783 0.435862 7.7283 -12.875
323 1 Zr 0.384573 5.82503e-15 0.384573 8.11447 4.00275
324 1 Zr 0.392927 0.192127 0.392927 12.6842 -12.1818
325 2 N 0.286108 0.0814396 0.286108 15.8036 -16.1817
326 2 N 0.324644 1.65211e-14 0.399245 13.7082 -17.8242
327 2 N 0.399245 5.10993e-14 0.324644 13.7082 -17.8242
328 2 N 0.40059 0.123728 0.40059 15.2663 -13.1246
329 2 N 0.308241 0.227715 0.392747 8.69124 -14.8267
330 2 N 0.392747 0.227715 0.308241 8.69125 -14.8267
331 1 Zr 0.5 1 0.27526 13.0466 -13.1781
332 1 Zr 0.711028 1.99941e-14 0.288972 10.9618 -14.4025
333 1 Zr 0.564138 0.0772783 0.324096 7.7283 -12.875
334 1 Zr 0.5 0.189779 0.279251 12.201 -8.98498
335 1 Zr 0.679843 0.236268 0.320157 12.142 -6.71751
336 1 Zr 0.5 0.104705 0.413388 5.96643 -11.4522
337 1 Zr 0.615427 2.51493e-15 0.384573 8.11447 4.00275
338 1 Zr 0.675904 0.0772783 0.435862 7.7283 -12.875
339 1 Zr 0.607073 0.192127 0.392927 12.6842 -12.1818
340 2 N 0.5 0.116434 0.283248 10.6243 -14.8865
341 2 N 0.5 1 0.41508 6.22437 -4.96931
342 2 N 0.600755 1 0.324644 13.7082 -17.8242
343 2 N 0.713892 0.0814396 0.286108 15.8036 -16.1817
344 2 N 0.675356 6.78079e-14 0.399245 13.7082 -17.8242
345 2 N 0.59941 0.123728 0.40059 15.2663 -13.1246
346 2 N 0.5 0.221474 0.407889 13.6063 -8.14972
347 2 N 0.607253 0.227715 0.308241 8.69125 -14.8267
348 2 N 0.691759 0.227715 0.392747 8.69125 -14.8267
349 1 Zr 0.888457 1.1713e-13 0.280024 10.7515 -8.89288
350 1 Zr 0.779545 0.0952891 0.312443 16.8391 -12.7935
351 1 Zr 0.904711 0.220455 0.312443 16.8394 -12.7934
352 1 Zr 0.835831 1.31841e-13 0.381106 10.2439 -6.18453
353 1 Zr 0.935878 0.0641222 0.422344 7.64368 -9.63296
354 1 Zr 0.816476 0.183524 0.385321 18.3142 -12.7021
355 2 N 0.827112 1 0.313765 14.8544 -16.8952
356 2 N 0.92317 0.0768296 0.294929 7.8953 -7.89491
357 2 N 0.889728 1.04227e-14 0.419865 9.92209 -20.341
358 2 N 0.792661 0.111326 0.384628 14.3437 -11.5663
359 2 N 0.773177 0.226828 0.226332 8.51711 -3268.23
360 2 N 0.888674 0.207339 0.384628 14.3437 -11.5663
361 1 Zr 1.23814e-14 0.288972 0.288972 10.9618 -14.4025
362 1 Zr 0.236268 0.320157 0.320157 12.142 -6.71753
363 1 Zr 0.0772783 0.435862 0.324096 7.7283 -12.875
364 1 Zr 0.0772783 0.324096 0.435862 7.7283 -12.875
365 1 Zr 4.25417e-15 0.384573 0.384573 8.11447 4.00275
366 1 Zr 0.192127 0.392927 0.392927 12.6842 -12.1818
367 2 N 0.0814396 0.286108 0.286108 15.8036 -16.1817
368 2 N 3.09311e-13 0.324644 0.399245 13.7082 -17.8242
369 2 N 0.227715 0.308241 0.392747 8.69125 -14.8267
370 2 N 1 0.399245 0.324644 13.7082 -17.8242
371 2 N 0.123728 0.40059 0.40059 15.2663 -13.1246
372 2 N 0.227715 0.392747 0.308241 8.69125 -14.8267
373 1 Zr 0.418558 0.290808 0.290808 12.3554 -5.40998
374 1 Zr 0.290808 0.418558 0.290808 12.3554 -5.40998
375 1 Zr 0.290808 0.290808 0.418558 12.3554 -5.40998
376 1 Zr 0.387779 0.387779 0.387779 16.7465 -1.32477
377 2 N 0.287096 0.287096 0.287096 17.4109 -21.0924
378 2 N 0.404059 0.328074 0.404059 8.36464 -12.215
379 2 N 0.328074 0.404059 0.404059 8.36464 -12.215
380 2 N 0.404059 0.404059 0.328074 8.36464 -12.215
381 1 Zr 0.581442 0.290808 0.290808 12.3554 -5.40998
382 1 Zr 0.5 0.396037 0.298546 10.2448 -12.6153
383 1 Zr 0.709192 0.418558 0.290808 12.3554 -5.40998
384 1 Zr 0.5 0.298546 0.396037 10.2448 -12.6153
385 1 Zr 0.709192 0.290808 0.418558 12.3554 -5.40998
386 1 Zr 0.612221 0.387779 0.387779 16.7465 -1.32477
387 2 N 0.5 0.300895 0.300895 9.89869 -11.1859
388 2 N 0.712904 0.287096 0.287096 17.4109 -22.7223
389 2 N 0.595941 0.328074 0.404059 8.36464 -12.215
390 2 N 0.5 0.41177 0.41177 9.40809 -5.052
391 2 N 0.595941 0.404059 0.328074 8.36464 -12.215
392 2 N 0.671926 0.404059 0.404059 8.36464 -12.215
393 1 Zr 0.763732 0.320157 0.320157 12.142 -6.71752
394 1 Zr 0.922722 0.435862 0.324096 7.7283 -12.875
395 1 Zr 0.922722 0.324096 0.435862 7.7283 -12.875
396 1 Zr 0.807873 0.392927 0.392927 12.6842 -12.1818
397 2 N 0.91856 0.286108 0.286108 15.8036 -16.1817
398 2 N 0.772285 0.308241 0.392747 8.69125 -14.8267
399 2 N 0.772285 0.392747 0.308241 8.69125 -14.8267
400 2 N 0.876272 0.40059 0.40059 15.2663 -13.1246
401 1 Zr 2.14379e-14 0.5 0.27526 13.0466 -13.1781
402 1 Zr 0.189779 0.5 0.279251 12.201 -8.98498
403 1 Zr 0.0772783 0.564138 0.324096 7.7283 -12.875
404 1 Zr 1 0.711028 0.288972 10.9618 -14.4025
405 1 Zr 0.236268 0.679843 0.320157 12.1419 -6.71751
406 1 Zr 0.104705 0.5 0.413388 5.96643 -11.4522
407 1 Zr 5.56942e-16 0.615427 0.384573 8.11447 4.00275
408 1 Zr 0.0772783 0.675904 0.435862 7.7283 -12.875
409 1 Zr 0.192127 0.607073 0.392927 12.6842 -12.1818
410 2 N 0.116434 0.5 0.283248 10.6243 -14.8865
411 2 N 1 0.5 0.41508 6.22437 -4.96931
412 2 N 0.221474 0.5 0.407889 13.6063 -8.14972
413 2 N 1 0.600755 0.324644 13.7082 -17.8242
414 2 N 0.0814396 0.713892 0.286108 15.8036 -16.1817
415 2 N 0.123728 0.59941 0.40059 15.2663 -13.1246
416 2 N 7.49262e-14 0.675356 0.399245 13.7082 -17.8242
417 2 N 0.227715 0.607253 0.308241 8.69125 -14.8267
418 2 N 0.227715 0.691759 0.392747 8.69125 -14.8267
419 1 Zr 0.396037 0.5 0.298546 10.2448 -12.6153
420 1 Zr 0.290808 0.581442 0.290808 12.3554 -5.40998
421 1 Zr 0.418558 0.709192 0.290808 12.3554 -5.40998
422 1 Zr 0.298546 0.5 0.396037 10.2448 -12.6153
423 1 Zr 0.290808 0.709192 0.418558 12.3554 -5.40998
424 1 Zr 0.387779 0.612221 0.387779 16.7465 -1.32477
425 2 N 0.300895 0.5 0.300895 9.89869 -11.1859
426 2 N 0.41177 0.5 0.41177 9.40809 -5.052
427 2 N 0.287095 0.712905 0.287095 17.411 -22.7228
428 2 N 0.328074 0.595941 0.404059 8.36464 -12.215
429 2 N 0.404059 0.595941 0.328074 8.36464 -12.215
430 2 N 0.404059 0.671926 0.404059 8.36464 -12.215
431 1 Zr 0.603963 0.5 0.298546 10.2448 -12.6153
432 1 Zr 0.5 0.603963 0.298546 10.2448 -12.6153
433 1 Zr 0.709192 0.581442 0.290808 12.3554 -5.40998
434 1 Zr 0.581442 0.709192 0.290808 12.3554 -5.40998
435 1 Zr 0.5 0.5 0.398272 4.90398 -11.3318
436 1 Zr 0.701454 0.5 0.396037 10.2448 -12.6153
437 1 Zr 0.5 0.701454 0.396037 10.2448 -12.6153
438 1 Zr 0.612221 0.612221 0.387779 16.7465 -1.32477
439 1 Zr 0.709192 0.709192 0.418558 12.3554 -5.40998
440 2 N 0.5 0.5 0.31548 4.77799 -7.47964
441 2 N 0.699105 0.5 0.300895 9.89869 -11.1859
442 2 N 0.58823 0.5 0.41177 9.40809 -5.052
443 2 N 0.5 0.699105 0.300895 9.89869 -11.1859
444 2 N 0.5 0.58823 0.41177 9.40809 -5.052
445 2 N 0.595941 0.595941 0.328074 8.36464 -12.215
446 2 N 0.712904 0.712904 0.287096 17.4109 -21.0924
447 2 N 0.671926 0.595941 0.404059 8.36464 -12.215
448 2 N 0.595941 0.671926 0.404059 8.36464 -12.215
449 1 Zr 0.810221 0.5 0.279251 12.201 -8.98498
450 1 Zr 0.922722 0.564138 0.324096 7.7283 -12.875
451 1 Zr 0.763732 0.679843 0.320157 12.142 -6.71717
452 1 Zr 0.895295 0.5 0.413388 5.96643 -11.4522
453 1 Zr 0.807873 0.607073 0.392927 12.6842 -12.1818
454 1 Zr 0.922722 0.675904 0.435862 7.7283 -12.875
455 2 N 0.883566 0.5 0.283248 10.6243 -14.8865
456 2 N 0.778526 0.5 0.407889 13.6063 -8.14972
457 2 N 0.772285 0.607253 0.308241 8.69124 -14.8267
458 2 N 0.91856 0.713892 0.286108 15.8036 -16.1817
459 2 N 0.876272 0.59941 0.40059 15.2663 -13.1246
460 2 N 0.772285 0.691759 0.392747 8.69124 -14.8267
461 1 Zr 0.0952891 0.779545 0.312443 16.8393 -12.7934
462 1 Zr -4.03398e-15 0.888457 0.280024 10.7515 -8.89288
463 1 Zr 0.220455 0.904711 0.312443 16.8392 -12.7934
464 1 Zr -2.07367e-13 0.835831 0.381106 10.2439 -6.18453
465 1 Zr 0.0641222 0.935878 0.422344 7.64368 -9.63296
466 1 Zr 0.183524 0.816476 0.385321 18.3142 -12.7022
467 2 N 1 0.827112 0.313765 14.8544 -16.8952
468 2 N 0.0768296 0.92317 0.294929 7.8953 -7.89491
469 2 N 0.111326 0.792661 0.384628 14.3437 -11.5663
470 2 N 3.4781e-14 0.889728 0.419865 9.92209 -20.341
471 2 N 0.226825 0.773174 0.226332 8.51743 -3269.13
472 2 N 0.207339 0.888674 0.384628 14.3437 -11.5663
473 1 Zr 0.320157 0.763732 0.320157 12.1419 -6.7175
474 1 Zr 0.435862 0.922722 0.324096 7.7283 -12.875
475 1 Zr 0.324096 0.922722 0.435862 7.7283 -12.875
476 1 Zr 0.392927 0.807873 0.392927 12.6842 -12.1818
477 2 N 0.286108 0.91856 0.286108 15.8036 -16.1817
478 2 N 0.308241 0.772285 0.392747 8.69125 -14.8267
479 2 N 0.392747 0.772285 0.308241 8.69125 -14.8267
480 2 N 0.40059 0.876272 0.40059 15.2663 -13.1246
481 1 Zr 0.5 0.810221 0.279251 12.201 -8.98498
482 1 Zr 0.679843 0.763732 0.320157 12.142 -6.71753
483 1 Zr 0.564138 0.922722 0.324096 7.7283 -12.875
484 1 Zr 0.5 0.895295 0.413388 5.96643 -11.4522
485 1 Zr 0.607073 0.807873 0.392927 12.6842 -12.1818
486 1 Zr 0.675904 0.922722 0.435862 7.7283 -12.875
487 2 N 0.5 0.883566 0.283248 10.6243 -14.8865
488 2 N 0.5 0.778526 0.407889 13.6063 -8.14972
489 2 N 0.607253 0.772285 0.308241 8.69125 -14.8267
490 2 N 0.713892 0.91856 0.286108 15.8036 -16.1817
491 2 N 0.691759 0.772285 0.392747 8.69125 -14.8267
492 2 N 0.59941 0.876272 0.40059 15.2663 -13.1246
493 1 Zr 0.904711 0.779545 0.312443 16.8459 -12.7939
494 1 Zr 0.779545 0.904711 0.312443 16.8405 -12.793
495 1 Zr 0.816476 0.816476 0.385321 18.3142 -12.702
496 1 Zr 0.935878 0.935878 0.422344 7.64368 -9.63296
497 2 N 0.773135 0.773118 0.226246 8.49132 -4018.58
498 2 N 0.92317 0.92317 0.294929 7.8953 -7.89491
499 2 N 0.888674 0.792661 0.384628 14.3437 -11.5663
500 2 N 0.792661 0.888674 0.384628 14.3437 -11.5663
501 1 Zr 0.126235 1 0.5 6.79029 -11.9448
502 1 Zr 1 0.126235 0.5 6.79029 -11.9448
503 1 Zr 0.201593 0.101943 0.5 3.88419 -12.4066
504 1 Zr 0.101943 0.201593 0.5 3.88419 -12.4066
505 1 Zr 1.59133e-13 3.08046e-13 0.618755 14.0926 -14.6092
506 1 Zr 0.0641222 0.0641222 0.577656 7.64368 -9.63296
507 1 Zr 0.111543 1 0.719976 10.7515 -8.89288
508 1 Zr 5.39382e-14 0.111543 0.719976 10.7515 -8.89288
509 1 Zr 0.164169 1.47587e-13 0.618894 10.2439 -6.18453
510 1 Zr 0.220455 0.0952891 0.687557 16.8365 -12.7941
511 1 Zr -1.15517e-13 0.164169 0.618894 10.2439 -6.18453
512 1 Zr 0.0952891 0.220455 0.687557 16.8457 -12.7934
513 1 Zr 0.183524 0.183524 0.614679 18.3142 -12.702
514 2 N 4.56555e-14 4.67832e-14 0.5 5.10775 -1.65995
515 2 N 0.111883 0.111883 0.5 11.6783 -8.03946
516 2 N 0.110272 9.6101e-14 0.580135 9.92209 -20.341
517 2 N 6.10193e-14 0.110272 0.580135 9.92209 -20.341
518 2 N 0.212363 4.31205e-14 0.5 10.9719 -15.5749
519 2 N 0.207339 0.111326 0.615372 14.3437 -11.5663
520 2 N 1.81046e-14 0.212363 0.5 10.9719 -15.5749
521 2 N 0.111326 0.207339 0.615372 14.3437 -11.5663
522 2 N 0.203901 0.203901 0.5 5.08081 -12.3481
523 2 N 2.20932e-13 3.73627e-13 0.674855 15.3952 -14.8251
524 2 N 0.0768296 0.0768296 0.705071 7.8953 -7.89491
525 2 N 0.172888 6.10361e-14 0.686235 14.8544 -16.8952
526 2 N 1 0.172888 0.686235 14.8544 -16.8952
527 2 N 0.226774 0.226914 0.773632 8.50943 -3267.41
528 1 Zr 0.27526 1 0.5 13.0466 -13.1781
529 1 Zr 0.413388 0.104705 0.5 5.96643 -11.4522
530 1 Zr 0.279251 0.189779 0.5 12.201 -8.98498
531 1 Zr 0.324096 0.0772783 0.564138 7.7283 -12.875
532 1 Zr 0.288972 1 0.711028 10.9618 -14.4025
533 1 Zr 0.384573 1.03172e-14 0.615427 8.11447 4.00275
534 1 Zr 0.435862 0.0772783 0.675904 7.7283 -12.875
535 1 Zr 0.320157 0.236268 0.679843 12.1419 -6.71749
536 1 Zr 0.392927 0.192127 0.607073 12.6842 -12.1818
537 2 N 0.283248 0.116434 0.5 10.6243 -14.8865
538 2 N 0.324644 1 0.600755 13.7082 -17.8242
539 2 N 0.41508 1.59079e-13 0.5 6.22437 -4.96931
540 2 N 0.40059 0.123728 0.59941 15.2663 -13.1246
541 2 N 0.308241 0.227715 0.607253 8.69121 -14.8267
542 2 N 0.407889 0.221474 0.5 13.6063 -8.14972
543 2 N 0.286108 0.0814396 0.713892 15.8036 -16.1817
544 2 N 0.399245 1.24388e-13 0.675356 13.7082 -17.8242
545 2 N 0.392747 0.227715 0.691759 8.69121 -14.8267
546 1 Zr 0.5 1 0.5 3.88592 -7.56121
547 1 Zr 0.72474 1 0.5 13.0466 -13.1781
548 1 Zr 0.586612 0.104705 0.5 5.96643 -11.4522
549 1 Zr 0.5 0.212867 0.5 5.01828 -12.3837
550 1 Zr 0.720749 0.189779 0.5 12.201 -8.98498
551 1 Zr 0.5 0.104705 0.586612 5.96643 -11.4522
552 1 Zr 0.5 1 0.72474 13.0466 -13.1781
553 1 Zr 0.615427 1.07298e-14 0.615427 8.11447 4.00275
554 1 Zr 0.675904 0.0772783 0.564138 7.7283 -12.875
555 1 Zr 0.711028 1 0.711028 10.9618 -14.4025
556 1 Zr 0.564138 0.0772783 0.675904 7.7283 -12.875
557 1 Zr 0.5 0.189779 0.720749 12.201 -8.98494
558 1 Zr 0.607073 0.192127 0.607073 12.6842 -12.1818
559 1 Zr 0.679843 0.236268 0.679843 12.142 -6.71736
560 2 N 0.5 0.110997 0.5 11.483 -12.245
561 2 N 0.5 1 0.58492 6.22437 -4.96931
562 2 N 0.58492 2.14223e-13 0.5 6.22437 -4.96931
563 2 N 0.716752 0.116434 0.5 10.6243 -14.8865
564 2 N 0.675356 1 0.600755 13.7082 -17.8242
565 2 N 0.59941 0.123728 0.59941 15.2663 -13.1246
566 2 N 0.5 0.221474 0.592111 13.6063 -8.14972
567 2 N 0.592111 0.221474 0.5 13.6063 -8.14972
568 2 N 0.691759 0.227715 0.607253 8.69124 -14.8267
569 2 N 0.5 0.116434 0.716752 10.6243 -14.8865
570 2 N 0.600755 3.39049e-13 0.675356 13.7082 -17.8242
571 2 N 0.713892 0.0814396 0.713892 15.8036 -16.1817
572 2 N 0.607253 0.227715 0.691759 8.69124 -14.8267
573 1 Zr 0.873765 1 0.5 6.79029 -11.9448
574 1 Zr 0.798407 0.101943 0.5 3.88419 -12.4066
575 1 Zr 0.898057 0.201593 0.5 3.88419 -12.4066
576 1 Zr 0.835831 1 0.618894 10.2439 -6.18453
577 1 Zr 0.935878 0.0641222 0.577656 7.64368 -9.63296
578 1 Zr 0.888457 1 0.719976 10.7515 -8.89288
579 1 Zr 0.779545 0.0952891 0.687557 16.8417 -12.7934
580 1 Zr 0.816476 0.183524 0.614679 18.3142 -12.7022
581 1 Zr 0.904711 0.220455 0.687557 16.842 -12.7935
582 2 N 0.787637 3.26449e-14 0.5 10.9719 -15.5749
583 2 N 0.888117 0.111883 0.5 11.6783 -8.03946
584 2 N 0.889728 1.0178e-13 0.580135 9.92209 -20.341
585 2 N 0.792661 0.111326 0.615372 14.3437 -11.5663
586 2 N 0.796099 0.203901 0.5 5.08081 -12.3481
587 2 N 0.888674 0.207339 0.615372 14.3437 -11.5663
588 2 N 0.827112 5.49183e-14 0.686235 14.8544 -16.8952
589 2 N 0.92317 0.0768296 0.705071 7.8953 -7.89491
590 2 N 0.773156 0.226842 0.773734 8.50083 -2969.48
591 1 Zr 1 0.27526 0.5 13.0466 -13.1781
592 1 Zr 0.189779 0.279251 0.5 12.201 -8.98498
593 1 Zr 0.104705 0.413388 0.5 5.96643 -11.4522
594 1 Zr 0.0772783 0.324096 0.564138 7.7283 -12.875