ITEM: TIMESTEP
89
ITEM: NUMBER OF ATOMS
999
ITEM: BOX BOUNDS pp pp pp
0.0000000000000000e+00 2.2699999999999999e+01
0.0000000000000000e+00 2.2699999999999999e+01
0.0000000000000000e+00 2.2699999999999999e+01
ITEM: ATOMS id type element xs ys zs c_csym c_eng
2 1 Zr 0.0930347 0.0930347 -4.5023e-13 5.15717 -14.3353
3 1 Zr 0.0930347 4.63372e-13 0.0930347 5.15717 -14.3353
4 1 Zr 2.33198e-13 0.0930347 0.0930347 5.15717 -14.3353
5 1 Zr 0.208525 4.0834e-13 -2.01073e-13 9.2819 -14.337
6 1 Zr 0.202792 0.0989946 0.0989946 12.5324 -14.3461
7 1 Zr 2.40154e-13 0.208525 -2.12238e-13 9.2819 -14.337
8 1 Zr 0.0989946 0.202792 0.0989946 12.5324 -14.3461
9 1 Zr 0.201837 0.201837 -6.38534e-13 8.61085 -14.3471
10 1 Zr 2.34392e-13 2.98706e-13 0.208525 9.2819 -14.337
11 1 Zr 0.0989946 0.0989946 0.202792 12.5324 -14.3461
12 1 Zr 0.201837 9.01232e-13 0.201837 8.61085 -14.3471
13 1 Zr 4.26881e-13 0.201837 0.201837 8.61085 -14.3471
14 1 Zr 0.200381 0.200381 0.200381 14.9091 -14.3456
15 2 N 0.109571 1.87948e-16 1.06721e-14 9.17092 -6.21566
16 2 N 1.6628e-14 0.109571 -3.3985e-15 9.17092 -6.21566
17 2 N 0.197155 0.100907 2.67573e-13 11.747 -6.01933
18 2 N 0.100907 0.197155 2.85751e-13 11.747 -6.01933
19 2 N 5.37885e-15 4.58455e-15 0.109571 9.17092 -6.21566
20 2 N 0.101197 0.101197 0.101197 13.0716 -5.87195
21 2 N 0.100907 -3.23219e-13 0.197155 11.747 -6.01933
22 2 N -1.82283e-13 0.100907 0.197155 11.747 -6.01933
23 2 N 0.197155 -3.91819e-13 0.100907 11.747 -6.01933
24 2 N 0.199625 0.100118 0.199625 9.78912 -6.05896
25 2 N -1.89077e-13 0.197155 0.100907 11.747 -6.01933
26 2 N 0.100118 0.199625 0.199625 9.78912 -6.05896
27 2 N 0.199625 0.199625 0.100118 9.78912 -6.05896
28 1 Zr 0.295072 0.0990381 -3.57039e-13 11.0898 -14.3558
29 1 Zr 0.295072 8.56667e-13 0.0990381 11.0898 -14.3558
30 1 Zr 0.4041 1.4131e-12 -1.93526e-13 12.7448 -14.3259
31 1 Zr 0.401649 0.100246 0.100246 9.37343 -14.3446
32 1 Zr 0.299066 0.199823 0.0999756 14.3251 -14.3525
33 1 Zr 0.401027 0.200754 -2.89117e-13 14.5501 -14.3397
34 1 Zr 0.299066 0.0999756 0.199823 14.3251 -14.3525
35 1 Zr 0.401027 1.23354e-12 0.200754 14.5501 -14.3397
36 1 Zr 0.400201 0.200062 0.200062 10.1799 -14.3426
37 2 N 0.303789 -5.74723e-13 1.71471e-13 11.7615 -6.21333
38 2 N 0.398498 0.100652 1.06888e-13 13.3818 -5.95136
39 2 N 0.300588 0.198969 2.37502e-13 13.9865 -6.09154
40 2 N 0.301391 0.0996707 0.0996707 8.81675 -6.09235
41 2 N 0.300588 -5.302e-13 0.198969 13.9865 -6.09154
42 2 N 0.398498 -6.2466e-13 0.100652 13.3818 -5.95136
43 2 N 0.399775 0.100179 0.200569 9.88688 -6.04474
44 2 N 0.300069 0.199876 0.199876 10.0801 -6.07713
45 2 N 0.399775 0.200569 0.100179 9.88688 -6.04474
46 1 Zr 0.5 0.0999254 -9.4603e-14 4.74169 -14.3598
47 1 Zr 0.5 8.94614e-13 0.0999254 4.74169 -14.3598
48 1 Zr 0.5959 1.32843e-12 -4.07032e-14 12.7448 -14.3259
49 1 Zr 0.704928 0.0990381 -2.7394e-13 11.0898 -14.3558
50 1 Zr 0.704928 6.41386e-13 0.0990381 11.0898 -14.3558
51 1 Zr 0.598351 0.100246 0.100246 9.37343 -14.3446
52 1 Zr 0.5 0.199071 0.100129 14.7559 -14.3549
53 1 Zr 0.598973 0.200754 -3.28414e-13 14.5501 -14.3397
54 1 Zr 0.700934 0.199823 0.0999756 14.3251 -14.3525
55 1 Zr 0.5 0.100129 0.199071 14.7559 -14.3549
56 1 Zr 0.598973 1.14461e-12 0.200754 14.5501 -14.3397
57 1 Zr 0.700934 0.0999756 0.199823 14.3251 -14.3525
58 1 Zr 0.599799 0.200062 0.200062 10.1799 -14.3426
59 2 N 0.5 -6.88851e-13 1.99749e-14 5.07826 -6.2512
60 2 N 0.696211 -4.81417e-13 8.61859e-14 11.7615 -6.21333
61 2 N 0.601502 0.100652 7.98902e-14 13.3818 -5.95136
62 2 N 0.5 0.199326 9.85612e-14 4.88088 -6.11587
63 2 N 0.699412 0.198969 2.40483e-13 13.9865 -6.09154
64 2 N 0.5 0.0992709 0.0992709 9.98069 -6.17388
65 2 N 0.5 -5.7017e-13 0.199326 4.88088 -6.11587
66 2 N 0.601502 -5.70071e-13 0.100652 13.3818 -5.95136
67 2 N 0.698609 0.0996707 0.0996707 8.81675 -6.09235
68 2 N 0.699412 -3.97932e-13 0.198969 13.9865 -6.09154
69 2 N 0.600225 0.100179 0.200569 9.88688 -6.04474
70 2 N 0.5 0.199842 0.199842 10.0663 -6.08201
71 2 N 0.600225 0.200569 0.100179 9.88688 -6.04474
72 2 N 0.699931 0.199876 0.199876 10.0801 -6.07713
73 1 Zr 0.791475 2.91569e-13 -1.4832e-13 9.2819 -14.337
74 1 Zr 0.906965 0.0930347 -4.04574e-13 5.15717 -14.3353
75 1 Zr 0.906965 2.56176e-13 0.0930347 5.15717 -14.3353
76 1 Zr 0.797208 0.0989946 0.0989946 12.5324 -14.3461
77 1 Zr 0.798163 0.201837 -6.31851e-13 8.61085 -14.3471
78 1 Zr 0.901005 0.202792 0.0989946 12.5324 -14.3461
79 1 Zr 0.798163 5.08183e-13 0.201837 8.61085 -14.3471
80 1 Zr 0.901005 0.0989946 0.202792 12.5324 -14.3461
81 1 Zr 0.799619 0.200381 0.200381 14.9091 -14.3456
82 2 N 0.890429 -1.42716e-14 4.3776e-14 9.17092 -6.21566
83 2 N 0.802845 0.100907 2.26636e-13 11.747 -6.01933
84 2 N 0.899093 0.197155 2.74617e-13 11.747 -6.01933
85 2 N 0.802845 -2.05276e-13 0.100907 11.747 -6.01933
86 2 N 0.898803 0.101197 0.101197 13.0716 -5.87195
87 2 N 0.899093 -1.90957e-13 0.197155 11.747 -6.01933
88 2 N 0.800375 0.100118 0.199625 9.78912 -6.05896
89 2 N 0.800375 0.199625 0.100118 9.78912 -6.05896
90 2 N 0.899882 0.199625 0.199625 9.78912 -6.05896
91 1 Zr 0.0990381 0.295072 -5.24023e-13 11.0898 -14.3558
92 1 Zr 6.02191e-13 0.295072 0.0990381 11.0898 -14.3558
93 1 Zr 0.199823 0.299066 0.0999756 14.3251 -14.3525
94 1 Zr 1.32648e-12 0.4041 -5.01543e-13 12.7448 -14.3259
95 1 Zr 0.100246 0.401649 0.100246 9.37343 -14.3446
96 1 Zr 0.200754 0.401027 -6.14064e-13 14.5501 -14.3397
97 1 Zr 0.0999756 0.299066 0.199823 14.3251 -14.3525
98 1 Zr 6.63869e-13 0.401027 0.200754 14.5501 -14.3397
99 1 Zr 0.200062 0.400201 0.200062 10.1799 -14.3426
100 2 N -4.75079e-13 0.303789 2.56657e-13 11.7615 -6.21333
101 2 N 0.198969 0.300588 3.19227e-13 13.9865 -6.09154
102 2 N 0.100652 0.398498 2.6872e-13 13.3818 -5.95136
103 2 N 0.0996707 0.301391 0.0996707 8.81675 -6.09235
104 2 N -2.83049e-13 0.300588 0.198969 13.9865 -6.09154
105 2 N 0.199876 0.300069 0.199876 10.0801 -6.07713
106 2 N -4.69908e-13 0.398498 0.100652 13.3818 -5.95136
107 2 N 0.100179 0.399775 0.200569 9.88688 -6.04474
108 2 N 0.200569 0.399775 0.100179 9.88688 -6.04474
109 1 Zr 0.298663 0.298663 -3.68289e-13 14.1091 -14.3546
110 1 Zr 0.399976 0.300619 0.100232 14.8984 -14.3507
111 1 Zr 0.300619 0.399976 0.100232 14.8984 -14.3507
112 1 Zr 0.400352 0.400352 -4.16192e-13 10.0624 -14.3403
113 1 Zr 0.299924 0.299924 0.199393 15.033 -14.3519
114 1 Zr 0.399999 0.399999 0.200085 5.07576 -14.3432
115 2 N 0.399499 0.300387 1.52211e-13 14.7923 -6.04449
116 2 N 0.300387 0.399499 2.39343e-13 14.7923 -6.04449
117 2 N 0.299837 0.299837 0.0996158 0.00449393 -6.07715
118 2 N 0.399957 0.30007 0.200244 9.97696 -6.0681
119 2 N 0.30007 0.399957 0.200244 9.97696 -6.0681
120 2 N 0.400287 0.400287 0.100183 10.1853 -6.09425
121 1 Zr 0.5 0.299486 -2.00145e-13 14.9164 -14.3551
122 1 Zr 0.701337 0.298663 -4.31582e-13 14.1091 -14.3546
123 1 Zr 0.600024 0.300619 0.100232 14.8984 -14.3507
124 1 Zr 0.5 0.39947 0.100184 14.8891 -14.3521
125 1 Zr 0.599648 0.400352 -5.48349e-13 10.0624 -14.3403
126 1 Zr 0.699381 0.399976 0.100232 14.8984 -14.3507
127 1 Zr 0.5 0.300067 0.199181 9.88154 -14.352
128 1 Zr 0.700076 0.299924 0.199393 15.033 -14.3519
129 1 Zr 0.600001 0.399999 0.200085 5.07576 -14.3432
130 2 N 0.600501 0.300387 2.05806e-13 14.7923 -6.04449
131 2 N 0.5 0.399693 1.88382e-13 5.01593 -6.06851
132 2 N 0.699613 0.399499 3.00784e-13 14.7923 -6.04449
133 2 N 0.5 0.299318 0.0995205 9.79506 -6.07872
134 2 N 0.700163 0.299837 0.0996158 0.00449393 -6.07715
135 2 N 0.600043 0.30007 0.200244 9.97696 -6.0681
136 2 N 0.5 0.399956 0.20011 4.99851 -6.07097
137 2 N 0.599713 0.400287 0.100183 10.1853 -6.09425
138 2 N 0.69993 0.399957 0.200244 9.97696 -6.0681
139 1 Zr 0.900962 0.295072 -5.11923e-13 11.0898 -14.3558
140 1 Zr 0.800177 0.299066 0.0999756 14.3251 -14.3525
141 1 Zr 0.799246 0.401027 -6.73878e-13 14.5501 -14.3397
142 1 Zr 0.899754 0.401649 0.100246 9.37343 -14.3446
143 1 Zr 0.900024 0.299066 0.199823 14.3251 -14.3525
144 1 Zr 0.799938 0.400201 0.200062 10.1799 -14.3426
145 2 N 0.801031 0.300588 3.35987e-13 13.9865 -6.09154
146 2 N 0.899348 0.398498 2.56625e-13 13.3818 -5.95136
147 2 N 0.900329 0.301391 0.0996707 8.81675 -6.09235
148 2 N 0.800124 0.300069 0.199876 10.0801 -6.07713
149 2 N 0.799431 0.399775 0.100179 9.88688 -6.04474
150 2 N 0.899821 0.399775 0.200569 9.88688 -6.04474
151 1 Zr 0.0999254 0.5 -3.46236e-13 4.74169 -14.3598
152 1 Zr 6.73359e-13 0.5 0.0999254 4.74169 -14.3598
153 1 Zr 0.199071 0.5 0.100129 14.7559 -14.3549
154 1 Zr 1.19187e-12 0.5959 -3.32658e-13 12.7448 -14.3259
155 1 Zr 0.0990381 0.704928 -4.25407e-13 11.0898 -14.3558
156 1 Zr 0.100246 0.598351 0.100246 9.37343 -14.3446
157 1 Zr 4.66231e-13 0.704928 0.0990381 11.0898 -14.3558
158 1 Zr 0.200754 0.598973 -6.44223e-13 14.5501 -14.3397
159 1 Zr 0.199823 0.700934 0.0999756 14.3251 -14.3525
160 1 Zr 0.100129 0.5 0.199071 14.7559 -14.3549
161 1 Zr 5.40779e-13 0.598973 0.200754 14.5501 -14.3397
162 1 Zr 0.0999756 0.700934 0.199823 14.3251 -14.3525
163 1 Zr 0.200062 0.599799 0.200062 10.1799 -14.3426
164 2 N -6.48838e-13 0.5 1.81735e-13 5.07826 -6.2512
165 2 N 0.199326 0.5 2.77372e-13 4.88088 -6.11587
166 2 N 0.100652 0.601502 2.42217e-13 13.3818 -5.95136
167 2 N -4.21458e-13 0.696211 1.91401e-13 11.7615 -6.21333
168 2 N 0.198969 0.699412 3.37396e-13 13.9865 -6.09154
169 2 N 0.0992709 0.5 0.0992709 9.98069 -6.17388
170 2 N -2.86641e-13 0.5 0.199326 4.88088 -6.11587
171 2 N 0.199842 0.5 0.199842 10.0663 -6.08201
172 2 N -4.02341e-13 0.601502 0.100652 13.3818 -5.95136
173 2 N 0.0996707 0.698609 0.0996707 8.81675 -6.09235
174 2 N 0.100179 0.600225 0.200569 9.88688 -6.04474
175 2 N -2.287e-13 0.699412 0.198969 13.9865 -6.09154
176 2 N 0.200569 0.600225 0.100179 9.88688 -6.04474
177 2 N 0.199876 0.699931 0.199876 10.0801 -6.07713
178 1 Zr 0.299486 0.5 -3.73112e-13 14.9164 -14.3551
179 1 Zr 0.39947 0.5 0.100184 14.8891 -14.3521
180 1 Zr 0.298663 0.701337 -5.08719e-13 14.1091 -14.3546
181 1 Zr 0.300619 0.600024 0.100232 14.8984 -14.3507
182 1 Zr 0.400352 0.599648 -6.89854e-13 10.0624 -14.3403
183 1 Zr 0.399976 0.699381 0.100232 14.8984 -14.3507
184 1 Zr 0.300067 0.5 0.199181 9.88154 -14.352
185 1 Zr 0.299924 0.700076 0.199393 15.033 -14.3519
186 1 Zr 0.399999 0.600001 0.200085 5.07576 -14.3432
187 2 N 0.399693 0.5 2.45739e-13 5.01593 -6.06851
188 2 N 0.300387 0.600501 3.25631e-13 14.7923 -6.04449
189 2 N 0.399499 0.699613 3.23245e-13 14.7923 -6.04449
190 2 N 0.299318 0.5 0.0995205 9.79506 -6.07872
191 2 N 0.399956 0.5 0.20011 4.99851 -6.07097
192 2 N 0.299837 0.700163 0.0996158 0.00449393 -6.07715
193 2 N 0.30007 0.600043 0.200244 9.97696 -6.0681
194 2 N 0.400287 0.599713 0.100183 10.1853 -6.09425
195 2 N 0.399957 0.69993 0.200244 9.97696 -6.0681
196 1 Zr 0.5 0.5 -3.3695e-13 5.11693 -14.3538
197 1 Zr 0.700514 0.5 -4.1862e-13 14.9164 -14.3551
198 1 Zr 0.60053 0.5 0.100184 14.8891 -14.3521
199 1 Zr 0.5 0.700514 -3.8949e-13 14.9164 -14.3551
200 1 Zr 0.5 0.60053 0.100184 14.8891 -14.3521
201 1 Zr 0.599648 0.599648 -6.87541e-13 10.0624 -14.3403
202 1 Zr 0.701337 0.701337 -3.87781e-13 14.1091 -14.3546
203 1 Zr 0.699381 0.600024 0.100232 14.8984 -14.3507
204 1 Zr 0.600024 0.699381 0.100232 14.8984 -14.3507
205 1 Zr 0.5 0.5 0.199173 14.8666 -14.3512
206 1 Zr 0.699933 0.5 0.199181 9.88154 -14.352
207 1 Zr 0.5 0.699933 0.199181 9.88154 -14.352
208 1 Zr 0.600001 0.600001 0.200085 5.07576 -14.3432
209 1 Zr 0.700076 0.700076 0.199393 15.033 -14.3519
210 2 N 0.600307 0.5 2.84989e-13 5.01593 -6.06851
211 2 N 0.5 0.600307 3.11431e-13 5.01593 -6.06851
212 2 N 0.699613 0.600501 3.04205e-13 14.7923 -6.04449
213 2 N 0.600501 0.699613 2.72076e-13 14.7923 -6.04449
214 2 N 0.5 0.5 0.0995575 5.04656 -6.04719
215 2 N 0.700682 0.5 0.0995205 9.79506 -6.07872
216 2 N 0.600044 0.5 0.20011 4.99851 -6.07097
217 2 N 0.5 0.700682 0.0995205 9.79506 -6.07872
218 2 N 0.5 0.600044 0.20011 4.99851 -6.07097
219 2 N 0.599713 0.599713 0.100183 10.1853 -6.09425
220 2 N 0.700163 0.700163 0.0996158 0.00449393 -6.07715
221 2 N 0.69993 0.600043 0.200244 9.97696 -6.0681
222 2 N 0.600043 0.69993 0.200244 9.97696 -6.0681
223 1 Zr 0.900075 0.5 -3.22109e-13 4.74169 -14.3598
224 1 Zr 0.800929 0.5 0.100129 14.7559 -14.3549
225 1 Zr 0.799246 0.598973 -5.63044e-13 14.5501 -14.3397
226 1 Zr 0.900962 0.704928 -3.40287e-13 11.0898 -14.3558
227 1 Zr 0.899754 0.598351 0.100246 9.37343 -14.3446
228 1 Zr 0.800177 0.700934 0.0999756 14.3251 -14.3525
229 1 Zr 0.899871 0.5 0.199071 14.7559 -14.3549
230 1 Zr 0.799938 0.599799 0.200062 10.1799 -14.3426
231 1 Zr 0.900024 0.700934 0.199823 14.3251 -14.3525
232 2 N 0.800674 0.5 2.78969e-13 4.88088 -6.11587
233 2 N 0.899348 0.601502 1.99514e-13 13.3818 -5.95136
234 2 N 0.801031 0.699412 2.58186e-13 13.9865 -6.09154
235 2 N 0.900729 0.5 0.0992709 9.98069 -6.17388
236 2 N 0.800158 0.5 0.199842 10.0663 -6.08201
237 2 N 0.799431 0.600225 0.100179 9.88688 -6.04474
238 2 N 0.900329 0.698609 0.0996707 8.81675 -6.09235
239 2 N 0.899821 0.600225 0.200569 9.88688 -6.04474
240 2 N 0.800124 0.699931 0.199876 10.0801 -6.07713
241 1 Zr 2.33352e-13 0.791475 -2.23938e-13 9.2819 -14.337
242 1 Zr 0.0930347 0.906965 -4.45769e-13 5.15717 -14.3353
243 1 Zr 0.0989946 0.797208 0.0989946 12.5324 -14.3461
244 1 Zr 1.99676e-13 0.906965 0.0930347 5.15717 -14.3353
245 1 Zr 0.201837 0.798163 -7.18214e-13 8.61085 -14.3471
246 1 Zr 0.202792 0.901005 0.0989946 12.5324 -14.3461
247 1 Zr 3.48066e-13 0.798163 0.201837 8.61085 -14.3471
248 1 Zr 0.0989946 0.901005 0.202792 12.5324 -14.3461
249 1 Zr 0.200381 0.799619 0.200381 14.9091 -14.3456
250 2 N 0.100907 0.802845 3.04037e-13 11.747 -6.01933
251 2 N -4.63946e-15 0.890429 3.21298e-14 9.17092 -6.21566
252 2 N 0.197155 0.899093 2.96533e-13 11.747 -6.01933
253 2 N -1.64638e-13 0.802845 0.100907 11.747 -6.01933
254 2 N 0.101197 0.898803 0.101197 13.0716 -5.87195
255 2 N 0.100118 0.800375 0.199625 9.78912 -6.05896
256 2 N -1.81542e-13 0.899093 0.197155 11.747 -6.01933
257 2 N 0.199625 0.800375 0.100118 9.78912 -6.05896
258 2 N 0.199625 0.899882 0.199625 9.78912 -6.05896
259 1 Zr 0.295072 0.900962 -4.36669e-13 11.0898 -14.3558
260 1 Zr 0.299066 0.800177 0.0999756 14.3251 -14.3525
261 1 Zr 0.401027 0.799246 -6.2303e-13 14.5501 -14.3397
262 1 Zr 0.401649 0.899754 0.100246 9.37343 -14.3446
263 1 Zr 0.299066 0.900024 0.199823 14.3251 -14.3525
264 1 Zr 0.400201 0.799938 0.200062 10.1799 -14.3426
265 2 N 0.300588 0.801031 3.50261e-13 13.9865 -6.09154
266 2 N 0.398498 0.899348 1.85766e-13 13.3818 -5.95136
267 2 N 0.301391 0.900329 0.0996707 8.81675 -6.09235
268 2 N 0.300069 0.800124 0.199876 10.0801 -6.07713
269 2 N 0.399775 0.799431 0.100179 9.88688 -6.04474
270 2 N 0.399775 0.899821 0.200569 9.88688 -6.04474
271 1 Zr 0.5 0.900075 -1.71306e-13 4.74169 -14.3598
272 1 Zr 0.5 0.800929 0.100129 14.7559 -14.3549
273 1 Zr 0.598973 0.799246 -4.48511e-13 14.5501 -14.3397
274 1 Zr 0.704928 0.900962 -2.47287e-13 11.0898 -14.3558
275 1 Zr 0.700934 0.800177 0.0999756 14.3251 -14.3525
276 1 Zr 0.598351 0.899754 0.100246 9.37343 -14.3446
277 1 Zr 0.5 0.899871 0.199071 14.7559 -14.3549
278 1 Zr 0.599799 0.799938 0.200062 10.1799 -14.3426
279 1 Zr 0.700934 0.900024 0.199823 14.3251 -14.3525
280 2 N 0.5 0.800674 2.35078e-13 4.88088 -6.11587
281 2 N 0.699412 0.801031 2.29734e-13 13.9865 -6.09154
282 2 N 0.601502 0.899348 9.92875e-14 13.3818 -5.95136
283 2 N 0.5 0.900729 0.0992709 9.98069 -6.17388
284 2 N 0.5 0.800158 0.199842 10.0663 -6.08201
285 2 N 0.600225 0.799431 0.100179 9.88688 -6.04474
286 2 N 0.698609 0.900329 0.0996707 8.81675 -6.09235
287 2 N 0.699931 0.800124 0.199876 10.0801 -6.07713
288 2 N 0.600225 0.899821 0.200569 9.88688 -6.04474
289 1 Zr 0.798163 0.798163 -5.01564e-13 8.61085 -14.3471
290 1 Zr 0.906965 0.906965 -3.55979e-13 5.15717 -14.3353
291 1 Zr 0.901005 0.797208 0.0989946 12.5324 -14.3461
292 1 Zr 0.797208 0.901005 0.0989946 12.5324 -14.3461
293 1 Zr 0.799619 0.799619 0.200381 14.9091 -14.3456
294 1 Zr 0.901005 0.901005 0.202792 12.5324 -14.3461
295 2 N 0.899093 0.802845 2.51044e-13 11.747 -6.01933
296 2 N 0.802845 0.899093 2.09709e-13 11.747 -6.01933
297 2 N 0.800375 0.800375 0.100118 9.78912 -6.05896
298 2 N 0.898803 0.898803 0.101197 13.0716 -5.87195
299 2 N 0.899882 0.800375 0.199625 9.78912 -6.05896
300 2 N 0.800375 0.899882 0.199625 9.78912 -6.05896
301 1 Zr 0.0990381 8.73178e-13 0.295072 11.0898 -14.3558
302 1 Zr 5.2673e-13 0.0990381 0.295072 11.0898 -14.3558
303 1 Zr 0.199823 0.0999756 0.299066 14.3251 -14.3525
304 1 Zr 0.0999756 0.199823 0.299066 14.3251 -14.3525
305 1 Zr 1.38455e-12 1.79318e-12 0.4041 12.7448 -14.3259
306 1 Zr 0.100246 0.100246 0.401649 9.37343 -14.3446
307 1 Zr 0.200754 1.48153e-12 0.401027 14.5501 -14.3397
308 1 Zr 5.89664e-13 0.200754 0.401027 14.5501 -14.3397
309 1 Zr 0.200062 0.200062 0.400201 10.1799 -14.3426
310 2 N -4.49091e-13 -5.68346e-13 0.303789 11.7615 -6.21333
311 2 N 0.0996707 0.0996707 0.301391 8.81675 -6.09235
312 2 N 0.100652 -7.71357e-13 0.398498 13.3818 -5.95136
313 2 N -4.73094e-13 0.100652 0.398498 13.3818 -5.95136
314 2 N 0.198969 -5.69628e-13 0.300588 13.9865 -6.09154
315 2 N 0.200569 0.100179 0.399775 9.88688 -6.04474
316 2 N -2.32952e-13 0.198969 0.300588 13.9865 -6.09154
317 2 N 0.100179 0.200569 0.399775 9.88688 -6.04474
318 2 N 0.199876 0.199876 0.300069 10.0801 -6.07713
319 1 Zr 0.298663 8.50221e-13 0.298663 14.1091 -14.3546
320 1 Zr 0.399976 0.100232 0.300619 14.8984 -14.3507
321 1 Zr 0.299924 0.199393 0.299924 15.033 -14.3519
322 1 Zr 0.300619 0.100232 0.399976 14.8984 -14.3507
323 1 Zr 0.400352 1.20545e-12 0.400352 10.0624 -14.3403
324 1 Zr 0.399999 0.200085 0.399999 5.07576 -14.3432
325 2 N 0.299837 0.0996158 0.299837 0.00449393 -6.07715
326 2 N 0.300387 -6.22432e-13 0.399499 14.7923 -6.04449
327 2 N 0.399499 -5.77925e-13 0.300387 14.7923 -6.04449
328 2 N 0.400287 0.100183 0.400287 10.1853 -6.09425
329 2 N 0.30007 0.200244 0.399957 9.97696 -6.0681
330 2 N 0.399957 0.200244 0.30007 9.97696 -6.0681
331 1 Zr 0.5 8.09867e-13 0.299486 14.9164 -14.3551
332 1 Zr 0.701337 6.96638e-13 0.298663 14.1091 -14.3546
333 1 Zr 0.600024 0.100232 0.300619 14.8984 -14.3507
334 1 Zr 0.5 0.199181 0.300067 9.88154 -14.352
335 1 Zr 0.700076 0.199393 0.299924 15.033 -14.3519
336 1 Zr 0.5 0.100184 0.39947 14.8891 -14.3521
337 1 Zr 0.599648 1.24791e-12 0.400352 10.0624 -14.3403
338 1 Zr 0.699381 0.100232 0.399976 14.8984 -14.3507
339 1 Zr 0.600001 0.200085 0.399999 5.07576 -14.3432
340 2 N 0.5 0.0995205 0.299318 9.79506 -6.07872
341 2 N 0.5 -5.62247e-13 0.399693 5.01593 -6.06851
342 2 N 0.600501 -5.70064e-13 0.300387 14.7923 -6.04449
343 2 N 0.700163 0.0996158 0.299837 0.00449393 -6.07715
344 2 N 0.699613 -5.65677e-13 0.399499 14.7923 -6.04449
345 2 N 0.599713 0.100183 0.400287 10.1853 -6.09425
346 2 N 0.5 0.20011 0.399956 4.99851 -6.07097
347 2 N 0.600043 0.200244 0.30007 9.97696 -6.0681
348 2 N 0.69993 0.200244 0.399957 9.97696 -6.0681
349 1 Zr 0.900962 6.67785e-13 0.295072 11.0898 -14.3558
350 1 Zr 0.800177 0.0999756 0.299066 14.3251 -14.3525
351 1 Zr 0.900024 0.199823 0.299066 14.3251 -14.3525
352 1 Zr 0.799246 1.1915e-12 0.401027 14.5501 -14.3397
353 1 Zr 0.899754 0.100246 0.401649 9.37343 -14.3446
354 1 Zr 0.799938 0.200062 0.400201 10.1799 -14.3426
355 2 N 0.801031 -3.94795e-13 0.300588 13.9865 -6.09154
356 2 N 0.900329 0.0996707 0.301391 8.81675 -6.09235
357 2 N 0.899348 -6.55594e-13 0.398498 13.3818 -5.95136
358 2 N 0.799431 0.100179 0.399775 9.88688 -6.04474
359 2 N 0.800124 0.199876 0.300069 10.0801 -6.07713
360 2 N 0.899821 0.200569 0.399775 9.88688 -6.04474
361 1 Zr 3.05902e-13 0.298663 0.298663 14.1091 -14.3546
362 1 Zr 0.199393 0.299924 0.299924 15.033 -14.3519
363 1 Zr 0.100232 0.399976 0.300619 14.8984 -14.3507
364 1 Zr 0.100232 0.300619 0.399976 14.8984 -14.3507
365 1 Zr 1.17281e-13 0.400352 0.400352 10.0624 -14.3403
366 1 Zr 0.200085 0.399999 0.399999 5.07576 -14.3432
367 2 N 0.0996158 0.299837 0.299837 0.00449393 -6.07715
368 2 N -1.46904e-13 0.300387 0.399499 14.7923 -6.04449
369 2 N 0.200244 0.30007 0.399957 9.97696 -6.0681
370 2 N -1.63747e-13 0.399499 0.300387 14.7923 -6.04449
371 2 N 0.100183 0.400287 0.400287 10.1853 -6.09425
372 2 N 0.200244 0.399957 0.30007 9.97696 -6.0681
373 1 Zr 0.399681 0.300402 0.300402 14.9698 -14.3513
374 1 Zr 0.300402 0.399681 0.300402 14.9698 -14.3513
375 1 Zr 0.300402 0.300402 0.399681 14.9698 -14.3513
376 1 Zr 0.399995 0.399995 0.399995 15.3079 -14.344
377 2 N 0.299645 0.299645 0.299645 15.1601 -6.05477
378 2 N 0.400144 0.300071 0.400144 10.1828 -6.08918
379 2 N 0.300071 0.400144 0.400144 10.1828 -6.08918
380 2 N 0.400144 0.400144 0.300071 10.1828 -6.08918
381 1 Zr 0.600319 0.300402 0.300402 14.9698 -14.3513
382 1 Zr 0.5 0.399547 0.300287 15.006 -14.3513
383 1 Zr 0.699598 0.399681 0.300402 14.9698 -14.3513
384 1 Zr 0.5 0.300287 0.399547 15.006 -14.3513
385 1 Zr 0.699598 0.300402 0.399681 14.9698 -14.3513
386 1 Zr 0.600005 0.399995 0.399995 15.3079 -14.344
387 2 N 0.5 0.299511 0.299511 14.9691 -6.04499
388 2 N 0.700355 0.299645 0.299645 15.1601 -6.05477
389 2 N 0.599856 0.300071 0.400144 10.1828 -6.08918
390 2 N 0.5 0.400077 0.400077 10.182 -6.08274
391 2 N 0.599856 0.400144 0.300071 10.1828 -6.08918
392 2 N 0.699929 0.400144 0.400144 10.1828 -6.08918
393 1 Zr 0.800607 0.299924 0.299924 15.033 -14.3519
394 1 Zr 0.899768 0.399976 0.300619 14.8984 -14.3507
395 1 Zr 0.899768 0.300619 0.399976 14.8984 -14.3507
396 1 Zr 0.799915 0.399999 0.399999 5.07576 -14.3432
397 2 N 0.900384 0.299837 0.299837 0.00449393 -6.07715
398 2 N 0.799756 0.30007 0.399957 9.97696 -6.0681
399 2 N 0.799756 0.399957 0.30007 9.97696 -6.0681
400 2 N 0.899817 0.400287 0.400287 10.1853 -6.09425
401 1 Zr 2.11919e-13 0.5 0.299486 14.9164 -14.3551
402 1 Zr 0.199181 0.5 0.300067 9.88154 -14.352
403 1 Zr 0.100232 0.600024 0.300619 14.8984 -14.3507
404 1 Zr 3.1959e-13 0.701337 0.298663 14.1091 -14.3546
405 1 Zr 0.199393 0.700076 0.299924 15.033 -14.3519
406 1 Zr 0.100184 0.5 0.39947 14.8891 -14.3521
407 1 Zr 2.34551e-13 0.599648 0.400352 10.0624 -14.3403
408 1 Zr 0.100232 0.699381 0.399976 14.8984 -14.3507
409 1 Zr 0.200085 0.600001 0.399999 5.07576 -14.3432
410 2 N 0.0995205 0.5 0.299318 9.79506 -6.07872
411 2 N -4.94166e-14 0.5 0.399693 5.01593 -6.06851
412 2 N 0.20011 0.5 0.399956 4.99851 -6.07097
413 2 N -1.57545e-13 0.600501 0.300387 14.7923 -6.04449
414 2 N 0.0996158 0.700163 0.299837 0.00449393 -6.07715
415 2 N 0.100183 0.599713 0.400287 10.1853 -6.09425
416 2 N -2.42011e-13 0.699613 0.399499 14.7923 -6.04449
417 2 N 0.200244 0.600043 0.30007 9.97696 -6.0681
418 2 N 0.200244 0.69993 0.399957 9.97696 -6.0681
419 1 Zr 0.399547 0.5 0.300287 15.006 -14.3513
420 1 Zr 0.300402 0.600319 0.300402 14.9698 -14.3513
421 1 Zr 0.399681 0.699598 0.300402 14.9698 -14.3513
422 1 Zr 0.300287 0.5 0.399547 15.006 -14.3513
423 1 Zr 0.300402 0.699598 0.399681 14.9698 -14.3513
424 1 Zr 0.399995 0.600005 0.399995 15.3079 -14.344
425 2 N 0.299511 0.5 0.299511 14.9691 -6.04499
426 2 N 0.400077 0.5 0.400077 10.182 -6.08274
427 2 N 0.299645 0.700355 0.299645 15.1601 -6.05477
428 2 N 0.300071 0.599856 0.400144 10.1828 -6.08918
429 2 N 0.400144 0.599856 0.300071 10.1828 -6.08918
430 2 N 0.400144 0.699929 0.400144 10.1828 -6.08918
431 1 Zr 0.600453 0.5 0.300287 15.006 -14.3513
432 1 Zr 0.5 0.600453 0.300287 15.006 -14.3513
433 1 Zr 0.699598 0.600319 0.300402 14.9698 -14.3513
434 1 Zr 0.600319 0.699598 0.300402 14.9698 -14.3513
435 1 Zr 0.5 0.5 0.399546 15.0698 -14.351
436 1 Zr 0.699713 0.5 0.399547 15.006 -14.3513
437 1 Zr 0.5 0.699713 0.399547 15.006 -14.3513
438 1 Zr 0.600005 0.600005 0.399995 15.3079 -14.344
439 1 Zr 0.699598 0.699598 0.399681 14.9698 -14.3513
440 2 N 0.5 0.5 0.299535 15.054 -6.02957
441 2 N 0.700489 0.5 0.299511 14.9691 -6.04499
442 2 N 0.599923 0.5 0.400077 10.182 -6.08274
443 2 N 0.5 0.700489 0.299511 14.9691 -6.04499
444 2 N 0.5 0.599923 0.400077 10.182 -6.08274
445 2 N 0.599856 0.599856 0.300071 10.1828 -6.08918
446 2 N 0.700355 0.700355 0.299645 15.1601 -6.05477
447 2 N 0.699929 0.599856 0.400144 10.1828 -6.08918
448 2 N 0.599856 0.699929 0.400144 10.1828 -6.08918
449 1 Zr 0.800819 0.5 0.300067 9.88154 -14.352
450 1 Zr 0.899768 0.600024 0.300619 14.8984 -14.3507
451 1 Zr 0.800607 0.700076 0.299924 15.033 -14.3519
452 1 Zr 0.899816 0.5 0.39947 14.8891 -14.3521
453 1 Zr 0.799915 0.600001 0.399999 5.07576 -14.3432
454 1 Zr 0.899768 0.699381 0.399976 14.8984 -14.3507
455 2 N 0.90048 0.5 0.299318 9.79506 -6.07872
456 2 N 0.79989 0.5 0.399956 4.99851 -6.07097
457 2 N 0.799756 0.600043 0.30007 9.97696 -6.0681
458 2 N 0.900384 0.700163 0.299837 0.00449393 -6.07715
459 2 N 0.899817 0.599713 0.400287 10.1853 -6.09425
460 2 N 0.799756 0.69993 0.399957 9.97696 -6.0681
461 1 Zr 0.0999756 0.800177 0.299066 14.3251 -14.3525
462 1 Zr 5.58574e-13 0.900962 0.295072 11.0898 -14.3558
463 1 Zr 0.199823 0.900024 0.299066 14.3251 -14.3525
464 1 Zr 7.72355e-13 0.799246 0.401027 14.5501 -14.3397
465 1 Zr 0.100246 0.899754 0.401649 9.37343 -14.3446
466 1 Zr 0.200062 0.799938 0.400201 10.1799 -14.3426
467 2 N -2.57896e-13 0.801031 0.300588 13.9865 -6.09154
468 2 N 0.0996707 0.900329 0.301391 8.81675 -6.09235
469 2 N 0.100179 0.799431 0.399775 9.88688 -6.04474
470 2 N -5.2881e-13 0.899348 0.398498 13.3818 -5.95136
471 2 N 0.199876 0.800124 0.300069 10.0801 -6.07713
472 2 N 0.200569 0.899821 0.399775 9.88688 -6.04474
473 1 Zr 0.299924 0.800607 0.299924 15.033 -14.3519
474 1 Zr 0.399976 0.899768 0.300619 14.8984 -14.3507
475 1 Zr 0.300619 0.899768 0.399976 14.8984 -14.3507
476 1 Zr 0.399999 0.799915 0.399999 5.07576 -14.3432
477 2 N 0.299837 0.900384 0.299837 0.00449393 -6.07715
478 2 N 0.30007 0.799756 0.399957 9.97696 -6.0681
479 2 N 0.399957 0.799756 0.30007 9.97696 -6.0681
480 2 N 0.400287 0.899817 0.400287 10.1853 -6.09425
481 1 Zr 0.5 0.800819 0.300067 9.88154 -14.352
482 1 Zr 0.700076 0.800607 0.299924 15.033 -14.3519
483 1 Zr 0.600024 0.899768 0.300619 14.8984 -14.3507
484 1 Zr 0.5 0.899816 0.39947 14.8891 -14.3521
485 1 Zr 0.600001 0.799915 0.399999 5.07576 -14.3432
486 1 Zr 0.699381 0.899768 0.399976 14.8984 -14.3507
487 2 N 0.5 0.90048 0.299318 9.79506 -6.07872
488 2 N 0.5 0.79989 0.399956 4.99851 -6.07097
489 2 N 0.600043 0.799756 0.30007 9.97696 -6.0681
490 2 N 0.700163 0.900384 0.299837 0.00449393 -6.07715
491 2 N 0.69993 0.799756 0.399957 9.97696 -6.0681
492 2 N 0.599713 0.899817 0.400287 10.1853 -6.09425
493 1 Zr 0.900024 0.800177 0.299066 14.3251 -14.3525
494 1 Zr 0.800177 0.900024 0.299066 14.3251 -14.3525
495 1 Zr 0.799938 0.799938 0.400201 10.1799 -14.3426
496 1 Zr 0.899754 0.899754 0.401649 9.37343 -14.3446
497 2 N 0.800124 0.800124 0.300069 10.0801 -6.07713
498 2 N 0.900329 0.900329 0.301391 8.81675 -6.09235
499 2 N 0.899821 0.799431 0.399775 9.88688 -6.04474
500 2 N 0.799431 0.899821 0.399775 9.88688 -6.04474
501 1 Zr 0.0999254 1.39191e-12 0.5 4.74169 -14.3598
502 1 Zr 8.59951e-13 0.0999254 0.5 4.74169 -14.3598
503 1 Zr 0.199071 0.100129 0.5 14.7559 -14.3549
504 1 Zr 0.100129 0.199071 0.5 14.7559 -14.3549
505 1 Zr 1.83032e-12 2.52166e-12 0.5959 12.7448 -14.3259
506 1 Zr 0.100246 0.100246 0.598351 9.37343 -14.3446
507 1 Zr 0.0990381 1.39967e-12 0.704928 11.0898 -14.3558
508 1 Zr 7.84059e-13 0.0990381 0.704928 11.0898 -14.3558
509 1 Zr 0.200754 1.7531e-12 0.598973 14.5501 -14.3397
510 1 Zr 0.199823 0.0999756 0.700934 14.3251 -14.3525
511 1 Zr 8.57598e-13 0.200754 0.598973 14.5501 -14.3397
512 1 Zr 0.0999756 0.199823 0.700934 14.3251 -14.3525
513 1 Zr 0.200062 0.200062 0.599799 10.1799 -14.3426
514 2 N -8.29471e-13 -1.1095e-12 0.5 5.07826 -6.2512
515 2 N 0.0992709 0.0992709 0.5 9.98069 -6.17388
516 2 N 0.100652 -1.04895e-12 0.601502 13.3818 -5.95136
517 2 N -6.49033e-13 0.100652 0.601502 13.3818 -5.95136
518 2 N 0.199326 -7.79246e-13 0.5 4.88088 -6.11587
519 2 N 0.200569 0.100179 0.600225 9.88688 -6.04474
520 2 N -3.35634e-13 0.199326 0.5 4.88088 -6.11587
521 2 N 0.100179 0.200569 0.600225 9.88688 -6.04474
522 2 N 0.199842 0.199842 0.5 10.0663 -6.08201
523 2 N -6.6334e-13 -9.87337e-13 0.696211 11.7615 -6.21333
524 2 N 0.0996707 0.0996707 0.698609 8.81675 -6.09235
525 2 N 0.198969 -7.30744e-13 0.699412 13.9865 -6.09154
526 2 N -3.47926e-13 0.198969 0.699412 13.9865 -6.09154
527 2 N 0.199876 0.199876 0.699931 10.0801 -6.07713
528 1 Zr 0.299486 9.00122e-13 0.5 14.9164 -14.3551
529 1 Zr 0.39947 0.100184 0.5 14.8891 -14.3521
530 1 Zr 0.300067 0.199181 0.5 9.88154 -14.352
531 1 Zr 0.300619 0.100232 0.600024 14.8984 -14.3507
532 1 Zr 0.298663 8.27538e-13 0.701337 14.1091 -14.3546
533 1 Zr 0.400352 9.97901e-13 0.599648 10.0624 -14.3403
534 1 Zr 0.399976 0.100232 0.699381 14.8984 -14.3507
535 1 Zr 0.299924 0.199393 0.700076 15.033 -14.3519
536 1 Zr 0.399999 0.200085 0.600001 5.07576 -14.3432
537 2 N 0.299318 0.0995205 0.5 9.79506 -6.07872
538 2 N 0.300387 -6.23301e-13 0.600501 14.7923 -6.04449
539 2 N 0.399693 -5.06591e-13 0.5 5.01593 -6.06851
540 2 N 0.400287 0.100183 0.599713 10.1853 -6.09425
541 2 N 0.30007 0.200244 0.600043 9.97696 -6.0681
542 2 N 0.399956 0.20011 0.5 4.99851 -6.07097
543 2 N 0.299837 0.0996158 0.700163 0.00449393 -6.07715
544 2 N 0.399499 -4.08558e-13 0.699613 14.7923 -6.04449
545 2 N 0.399957 0.200244 0.69993 9.97696 -6.0681
546 1 Zr 0.5 7.02945e-13 0.5 5.11693 -14.3538
547 1 Zr 0.700514 8.81378e-13 0.5 14.9164 -14.3551
548 1 Zr 0.60053 0.100184 0.5 14.8891 -14.3521
549 1 Zr 0.5 0.199173 0.5 14.8666 -14.3512
550 1 Zr 0.699933 0.199181 0.5 9.88154 -14.352
551 1 Zr 0.5 0.100184 0.60053 14.8891 -14.3521
552 1 Zr 0.5 5.80829e-13 0.700514 14.9164 -14.3551
553 1 Zr 0.599648 1.16598e-12 0.599648 10.0624 -14.3403
554 1 Zr 0.699381 0.100232 0.600024 14.8984 -14.3507
555 1 Zr 0.701337 8.70202e-13 0.701337 14.1091 -14.3546
556 1 Zr 0.600024 0.100232 0.699381 14.8984 -14.3507
557 1 Zr 0.5 0.199181 0.699933 9.88154 -14.352
558 1 Zr 0.600001 0.200085 0.600001 5.07576 -14.3432
559 1 Zr 0.700076 0.199393 0.700076 15.033 -14.3519
560 2 N 0.5 0.0995575 0.5 5.04656 -6.04719
561 2 N 0.5 -4.62745e-13 0.600307 5.01593 -6.06851
562 2 N 0.600307 -5.65725e-13 0.5 5.01593 -6.06851
563 2 N 0.700682 0.0995205 0.5 9.79506 -6.07872
564 2 N 0.699613 -6.68479e-13 0.600501 14.7923 -6.04449
565 2 N 0.599713 0.100183 0.599713 10.1853 -6.09425
566 2 N 0.5 0.20011 0.600044 4.99851 -6.07097
567 2 N 0.600044 0.20011 0.5 4.99851 -6.07097