ITEM: TIMESTEP
42
ITEM: NUMBER OF ATOMS
215
ITEM: BOX BOUNDS pp pp pp
0.0000000000000000e+00 1.3620000000000001e+01
0.0000000000000000e+00 1.3620000000000001e+01
0.0000000000000000e+00 1.3620000000000001e+01
ITEM: ATOMS id type element xs ys zs c_csym c_eng
2 1 Zr 0.161936 0.161936 -8.29021e-14 8.86369 -14.3452
3 1 Zr 0.161936 -7.01232e-14 0.161936 8.86369 -14.3452
4 1 Zr -2.7862e-14 0.161936 0.161936 8.86369 -14.3452
5 1 Zr 0.331914 -1.65616e-14 -3.85985e-14 9.74348 -14.3269
6 1 Zr 0.5 0.166095 3.22729e-14 5.1005 -14.3522
7 1 Zr 0.5 3.28619e-14 0.166095 5.1005 -14.3522
8 1 Zr 0.333711 0.166221 0.166221 15.1853 -14.3458
9 1 Zr -1.7512e-14 0.331914 -1.21497e-13 14.6063 -14.3269
10 1 Zr 0.166095 0.5 7.67322e-15 5.1005 -14.3522
11 1 Zr 0.166221 0.333711 0.166221 15.1853 -14.3458
12 1 Zr 8.05521e-15 0.5 0.166095 5.1005 -14.3522
13 1 Zr 0.333878 0.333878 4.82145e-14 10.1047 -14.3348
14 1 Zr 0.5 0.5 -2.29777e-15 2.82808e-25 -14.3516
15 1 Zr 0.5 0.333198 0.166666 15.3627 -14.3486
16 1 Zr 0.333198 0.5 0.166666 15.3627 -14.3486
17 1 Zr -3.82768e-14 -1.20835e-13 0.331914 14.6063 -14.3269
18 1 Zr 0.166221 0.166221 0.333711 15.1853 -14.3458
19 1 Zr 0.166095 1.50227e-15 0.5 5.1005 -14.3522
20 1 Zr 4.719e-16 0.166095 0.5 5.1005 -14.3522
21 1 Zr 0.333878 4.22146e-14 0.333878 10.1047 -14.3348
22 1 Zr 0.5 0.166666 0.333198 15.3627 -14.3486
23 1 Zr 0.5 -1.72999e-15 0.5 3.61278e-25 -14.3516
24 1 Zr 0.333198 0.166666 0.5 15.3627 -14.3486
25 1 Zr 1.32537e-14 0.333878 0.333878 10.1047 -14.3348
26 1 Zr 0.166666 0.5 0.333198 15.3627 -14.3486
27 1 Zr 0.166666 0.333198 0.5 15.3627 -14.3486
28 1 Zr -2.36853e-15 0.5 0.5 5.1194 -14.3516
29 1 Zr 0.333468 0.333468 0.333468 10.279 -14.3371
30 1 Zr 0.5 0.5 0.333122 5.12401 -14.3491
31 1 Zr 0.5 0.333122 0.5 5.12401 -14.3491
32 1 Zr 0.333122 0.5 0.5 5.12401 -14.3491
33 2 N 0.17104 -5.90929e-13 -1.68233e-12 13.1154 -5.99115
34 2 N -5.91188e-13 0.17104 -5.57747e-12 13.1154 -5.99115
35 2 N 0.5 -2.22251e-16 1.25799e-15 1.35712e-25 -6.0662
36 2 N 0.33277 0.167543 2.11841e-12 9.55516 -6.02205
37 2 N 0.167543 0.33277 8.86652e-13 9.55516 -6.02205
38 2 N 1.07507e-15 0.5 1.90323e-15 5.39415e-25 -6.0662
39 2 N 0.5 0.333108 -4.02202e-13 5.03854 -6.07799
40 2 N 0.333108 0.5 -1.27313e-13 5.03854 -6.07799
41 2 N -1.68192e-12 -5.57706e-12 0.17104 13.1154 -5.99115
42 2 N 0.167142 0.167142 0.167142 14.505 -6.05253
43 2 N 0.167543 4.76359e-13 0.33277 9.55516 -6.02205
44 2 N 3.02473e-13 0.167543 0.33277 9.55516 -6.02205
45 2 N 0.33277 2.05925e-12 0.167543 9.55516 -6.02205
46 2 N 0.5 0.166403 0.166403 10.2409 -6.08387
47 2 N 0.5 -3.99511e-13 0.333108 5.03854 -6.07799
48 2 N 0.333468 0.16698 0.333468 5.09116 -6.06
49 2 N 6.51989e-13 0.33277 0.167543 9.55516 -6.02205
50 2 N 0.166403 0.5 0.166403 10.2409 -6.08387
51 2 N 0.16698 0.333468 0.333468 5.09116 -6.06
52 2 N -1.28236e-13 0.5 0.333108 5.03854 -6.07799
53 2 N 0.333468 0.333468 0.16698 5.09116 -6.06
54 2 N 0.5 0.5 0.166377 5.11782 -6.06807
55 2 N 0.5 0.333384 0.333384 10.263 -6.07501
56 2 N 0.333384 0.5 0.333384 5.13156 -6.07501
57 2 N 9.78755e-16 -1.20756e-16 0.5 1.36418e-25 -6.0662
58 2 N 0.166403 0.166403 0.5 10.2409 -6.08387
59 2 N 0.333108 -3.24045e-14 0.5 5.03854 -6.07799
60 2 N 0.5 0.166377 0.5 5.11782 -6.06807
61 2 N -3.29881e-14 0.333108 0.5 5.03854 -6.07799
62 2 N 0.166377 0.5 0.5 5.11782 -6.06807
63 2 N 0.333384 0.333384 0.5 5.13156 -6.07501
64 2 N 0.5 0.5 0.5 7.77729e-25 -6.05715
65 1 Zr 0.668086 1.10568e-14 3.15623e-14 9.74348 -14.3269
66 1 Zr 0.838064 0.161936 -4.54474e-14 8.86369 -14.3452
67 1 Zr 0.838064 -5.66017e-14 0.161936 8.86369 -14.3452
68 1 Zr 0.666289 0.166221 0.166221 15.1853 -14.3458
69 1 Zr 0.666122 0.333878 2.42703e-14 10.1047 -14.3348
70 1 Zr 0.833905 0.5 -1.3767e-14 5.1005 -14.3522
71 1 Zr 0.833779 0.333711 0.166221 15.1853 -14.3458
72 1 Zr 0.666802 0.5 0.166666 15.3627 -14.3486
73 1 Zr 0.666122 3.18195e-14 0.333878 10.1047 -14.3348
74 1 Zr 0.833779 0.166221 0.333711 15.1853 -14.3458
75 1 Zr 0.833905 -5.23199e-15 0.5 5.1005 -14.3522
76 1 Zr 0.666802 0.166666 0.5 15.3627 -14.3486
77 1 Zr 0.666532 0.333468 0.333468 10.279 -14.3371
78 1 Zr 0.833334 0.5 0.333198 15.3627 -14.3486
79 1 Zr 0.833334 0.333198 0.5 15.3627 -14.3486
80 1 Zr 0.666878 0.5 0.5 5.12401 -14.3491
81 2 N 0.82896 5.95215e-13 1.68583e-12 13.1154 -5.99115
82 2 N 0.66723 0.167543 1.95678e-12 9.55516 -6.02205
83 2 N 0.832457 0.33277 -3.66985e-13 9.55516 -6.02205
84 2 N 0.666892 0.5 1.31007e-13 5.03854 -6.07799
85 2 N 0.66723 2.01494e-12 0.167543 9.55516 -6.02205
86 2 N 0.832858 0.167142 0.167142 14.505 -6.05253
87 2 N 0.832457 3.88277e-14 0.33277 9.55516 -6.02205
88 2 N 0.666532 0.16698 0.333468 5.09116 -6.06
89 2 N 0.666532 0.333468 0.16698 5.09116 -6.06
90 2 N 0.833597 0.5 0.166403 10.2409 -6.08387
91 2 N 0.83302 0.333468 0.333468 5.09116 -6.06
92 2 N 0.666616 0.5 0.333384 5.13156 -6.07501
93 2 N 0.666892 3.64796e-14 0.5 5.03854 -6.07799
94 2 N 0.833597 0.166403 0.5 10.2409 -6.08387
95 2 N 0.666616 0.333384 0.5 5.13156 -6.07501
96 2 N 0.833623 0.5 0.5 5.11782 -6.06807
97 1 Zr 1.04496e-14 0.668086 1.12332e-13 14.6063 -14.3269
98 1 Zr 0.161936 0.838064 3.89103e-14 8.86369 -14.3452
99 1 Zr 0.166221 0.666289 0.166221 15.1853 -14.3458
100 1 Zr -1.495e-14 0.838064 0.161936 8.86369 -14.3452
101 1 Zr 0.333878 0.666122 -3.25709e-14 10.1047 -14.3348
102 1 Zr 0.5 0.833905 -3.80634e-14 5.1005 -14.3522
103 1 Zr 0.5 0.666802 0.166666 15.3627 -14.3486
104 1 Zr 0.333711 0.833779 0.166221 15.1853 -14.3458
105 1 Zr 4.07903e-15 0.666122 0.333878 10.1047 -14.3348
106 1 Zr 0.166221 0.833779 0.333711 15.1853 -14.3458
107 1 Zr 0.166666 0.666802 0.5 15.3627 -14.3486
108 1 Zr -6.25711e-15 0.833905 0.5 5.1005 -14.3522
109 1 Zr 0.333468 0.666532 0.333468 10.279 -14.3371
110 1 Zr 0.5 0.833334 0.333198 15.3627 -14.3486
111 1 Zr 0.5 0.666878 0.5 5.12401 -14.3491
112 1 Zr 0.333198 0.833334 0.5 15.3627 -14.3486
113 2 N 0.167543 0.66723 3.46634e-13 9.55516 -6.02205
114 2 N 5.9539e-13 0.82896 5.58185e-12 13.1154 -5.99115
115 2 N 0.5 0.666892 4.05946e-13 5.03854 -6.07799
116 2 N 0.33277 0.832457 -1.95147e-12 9.55516 -6.02205
117 2 N 5.80118e-13 0.66723 0.167543 9.55516 -6.02205
118 2 N 0.167142 0.832858 0.167142 14.505 -6.05253
119 2 N 0.16698 0.666532 0.333468 5.09116 -6.06
120 2 N -1.35626e-13 0.832457 0.33277 9.55516 -6.02205
121 2 N 0.333468 0.666532 0.16698 5.09116 -6.06
122 2 N 0.5 0.833597 0.166403 10.2409 -6.08387
123 2 N 0.5 0.666616 0.333384 5.13156 -6.07501
124 2 N 0.333468 0.83302 0.333468 5.09116 -6.06
125 2 N 3.72424e-14 0.666892 0.5 5.03854 -6.07799
126 2 N 0.166403 0.833597 0.5 10.2409 -6.08387
127 2 N 0.333384 0.666616 0.5 5.13156 -6.07501
128 2 N 0.5 0.833623 0.5 5.11782 -6.06807
129 1 Zr 0.666122 0.666122 -5.44418e-14 10.1047 -14.3348
130 1 Zr 0.838064 0.838064 7.61915e-14 8.86369 -14.3452
131 1 Zr 0.833779 0.666289 0.166221 15.1853 -14.3458
132 1 Zr 0.666289 0.833779 0.166221 15.1853 -14.3458
133 1 Zr 0.666532 0.666532 0.333468 10.279 -14.3371
134 1 Zr 0.833779 0.833779 0.333711 15.1853 -14.3458
135 1 Zr 0.833334 0.666802 0.5 15.3627 -14.3486
136 1 Zr 0.666802 0.833334 0.5 15.3627 -14.3486
137 2 N 0.832457 0.66723 -8.58937e-13 9.55516 -6.02205
138 2 N 0.66723 0.832457 -2.11705e-12 9.55516 -6.02205
139 2 N 0.666532 0.666532 0.16698 5.09116 -6.06
140 2 N 0.832858 0.832858 0.167142 14.505 -6.05253
141 2 N 0.83302 0.666532 0.333468 5.09116 -6.06
142 2 N 0.666532 0.83302 0.333468 5.09116 -6.06
143 2 N 0.666616 0.666616 0.5 5.13156 -6.07501
144 2 N 0.833597 0.833597 0.5 10.2409 -6.08387
145 1 Zr 2.94982e-14 1.15017e-13 0.668086 14.6063 -14.3269
146 1 Zr 0.166221 0.166221 0.666289 15.1853 -14.3458
147 1 Zr 0.161936 5.33314e-14 0.838064 8.86369 -14.3452
148 1 Zr 9.113e-15 0.161936 0.838064 8.86369 -14.3452
149 1 Zr 0.333878 -3.82123e-14 0.666122 10.1047 -14.3348
150 1 Zr 0.5 0.166666 0.666802 15.3627 -14.3486
151 1 Zr 0.5 -3.66885e-14 0.833905 5.1005 -14.3522
152 1 Zr 0.333711 0.166221 0.833779 15.1853 -14.3458
153 1 Zr -1.23494e-14 0.333878 0.666122 10.1047 -14.3348
154 1 Zr 0.166666 0.5 0.666802 15.3627 -14.3486
155 1 Zr 0.166221 0.333711 0.833779 15.1853 -14.3458
156 1 Zr -1.32876e-14 0.5 0.833905 5.1005 -14.3522
157 1 Zr 0.333468 0.333468 0.666532 15.4183 -14.3371
158 1 Zr 0.5 0.5 0.666878 5.12401 -14.3491
159 1 Zr 0.5 0.333198 0.833334 15.3627 -14.3486
160 1 Zr 0.333198 0.5 0.833334 15.3627 -14.3486
161 2 N 0.167543 -4.22614e-14 0.66723 9.55516 -6.02205
162 2 N 1.33958e-13 0.167543 0.66723 9.55516 -6.02205
163 2 N 0.5 4.03582e-13 0.666892 5.03854 -6.07799
164 2 N 0.333468 0.16698 0.666532 5.09116 -6.06
165 2 N 0.16698 0.333468 0.666532 5.09116 -6.06
166 2 N 1.32154e-13 0.5 0.666892 5.03854 -6.07799
167 2 N 0.5 0.333384 0.666616 5.13156 -6.07501
168 2 N 0.333384 0.5 0.666616 5.13156 -6.07501
169 2 N 1.68651e-12 5.58105e-12 0.82896 13.1154 -5.99115
170 2 N 0.167142 0.167142 0.832858 14.505 -6.05253
171 2 N 0.33277 -2.01104e-12 0.832457 9.55516 -6.02205
172 2 N 0.5 0.166403 0.833597 10.2409 -6.08387
173 2 N -6.01973e-13 0.33277 0.832457 9.55516 -6.02205
174 2 N 0.166403 0.5 0.833597 10.2409 -6.08387
175 2 N 0.333468 0.333468 0.83302 5.09116 -6.06
176 2 N 0.5 0.5 0.833623 5.11782 -6.06807
177 1 Zr 0.666122 -4.60564e-14 0.666122 10.1047 -14.3348
178 1 Zr 0.833779 0.166221 0.666289 15.1853 -14.3458
179 1 Zr 0.838064 6.61636e-14 0.838064 8.86369 -14.3452
180 1 Zr 0.666289 0.166221 0.833779 15.1853 -14.3458
181 1 Zr 0.666532 0.333468 0.666532 10.279 -14.3371
182 1 Zr 0.833334 0.5 0.666802 15.3627 -14.3486
183 1 Zr 0.833779 0.333711 0.833779 15.1853 -14.3458
184 1 Zr 0.666802 0.5 0.833334 15.3627 -14.3486
185 2 N 0.832457 -4.70181e-13 0.66723 9.55516 -6.02205
186 2 N 0.666532 0.16698 0.666532 5.09116 -6.06
187 2 N 0.83302 0.333468 0.666532 5.09116 -6.06
188 2 N 0.666616 0.5 0.666616 5.13156 -6.07501
189 2 N 0.66723 -2.05996e-12 0.832457 9.55516 -6.02205
190 2 N 0.832858 0.167142 0.832858 14.505 -6.05253
191 2 N 0.666532 0.333468 0.83302 5.09116 -6.06
192 2 N 0.833597 0.5 0.833597 10.2409 -6.08387
193 1 Zr -1.92187e-14 0.666122 0.666122 10.1047 -14.3348
194 1 Zr 0.166221 0.833779 0.666289 15.1853 -14.3458
195 1 Zr 0.166221 0.666289 0.833779 15.1853 -14.3458
196 1 Zr 2.20992e-14 0.838064 0.838064 8.86369 -14.3452
197 1 Zr 0.333468 0.666532 0.666532 10.279 -14.3371
198 1 Zr 0.5 0.833334 0.666802 15.3627 -14.3486
199 1 Zr 0.5 0.666802 0.833334 15.3627 -14.3486
200 1 Zr 0.333711 0.833779 0.833779 15.1853 -14.3458
201 2 N 0.16698 0.666532 0.666532 5.09116 -6.06
202 2 N -2.93589e-13 0.832457 0.66723 9.55516 -6.02205
203 2 N 0.5 0.666616 0.666616 10.263 -6.07501
204 2 N 0.333468 0.83302 0.666532 5.09116 -6.06
205 2 N -6.25368e-13 0.66723 0.832457 9.55516 -6.02205
206 2 N 0.167142 0.832858 0.832858 14.505 -6.05253
207 2 N 0.333468 0.666532 0.83302 5.09116 -6.06
208 2 N 0.5 0.833597 0.833597 10.2409 -6.08387
1 2 N 0.832858 0.832858 0.832858 14.505 -6.05253
209 1 Zr 0.666532 0.666532 0.666532 10.279 -14.3371
210 1 Zr 0.833779 0.833779 0.666289 15.1853 -14.3458
211 1 Zr 0.833779 0.666289 0.833779 15.1853 -14.3458
212 1 Zr 0.666289 0.833779 0.833779 15.1853 -14.3458
213 2 N 0.83302 0.666532 0.666532 5.09116 -6.06
214 2 N 0.666532 0.83302 0.666532 5.09116 -6.06
215 2 N 0.666532 0.666532 0.83302 5.09116 -6.06
