ITEM: TIMESTEP
400
ITEM: NUMBER OF ATOMS
1727
ITEM: BOX BOUNDS pp pp pp
0.0000000000000000e+00 2.7240000000000002e+01
0.0000000000000000e+00 2.7240000000000002e+01
0.0000000000000000e+00 2.7240000000000002e+01
ITEM: ATOMS id type element xs ys zs c_csym c_eng
2 1 Zr 0.0680509 0.0646905 0.986893 13.7977 -16.4526
3 1 Zr 0.09392 0.974328 0.0981938 8.91336 -16.927
4 1 Zr 0.0055471 0.0862301 0.0860161 4.78626 -13.3872
5 1 Zr 0.166509 0.00756233 0.993723 7.86202 -14.3043
6 1 Zr 0.167899 0.081441 0.0907228 6.97926 -14.0117
7 1 Zr 0.971338 0.187093 0.990245 8.16722 -19.329
8 1 Zr 0.0824028 0.121413 0.0401782 10.6078 -20.1264
9 1 Zr 0.146308 0.16798 0.0250887 8.33768 -15.7134
10 1 Zr 0.00337415 0.0452468 0.20526 10.4556 -19.758
11 1 Zr 0.0972059 0.0865905 0.165628 9.17736 -13.7733
12 1 Zr 0.175114 0.0032457 0.167561 8.47689 -13.8214
13 1 Zr 0.995409 0.168962 0.178168 8.14028 -14.0277
14 1 Zr 0.16824 0.166916 0.169395 9.50343 -13.4253
15 2 N 0.0825219 0.00954353 0.00337641 11.2818 -6.69756
16 2 N 0.989272 0.0743606 0.00914617 8.07277 -4.92491
17 2 N 0.177279 0.0844256 0.001342 9.36393 -5.58956
18 2 N 0.100221 0.192886 0.978895 8.83145 -5.54463
19 2 N 0.993014 0.0147845 0.0905197 9.98948 -5.46313
20 2 N 0.0898837 0.0980904 0.0875954 9.10872 -8.30811
21 2 N 0.0975271 0.0107973 0.144662 8.88162 -7.02588
22 2 N 0.0167688 0.0801119 0.165196 9.99085 -8.06585
23 2 N 0.177148 0.00842428 0.0726012 8.73172 -5.78412
24 2 N 0.177219 0.0837415 0.177175 6.75973 -6.27054
25 2 N 0.999073 0.164266 0.0984825 11.2597 -7.61376
26 2 N 0.0813711 0.169666 0.17376 7.06057 -5.77359
27 2 N 0.192376 0.151757 0.100264 10.3652 -6.89217
28 1 Zr 0.251638 0.0712455 0.00910106 10.5959 -13.5462
29 1 Zr 0.250035 0.993164 0.104498 9.18573 -14.1231
30 1 Zr 0.323963 0.993401 0.998556 6.53266 -13.76
31 1 Zr 0.336183 0.0774152 0.0922035 4.17793 -13.869
32 1 Zr 0.253181 0.161727 0.0830469 10.322 -15.6814
33 1 Zr 0.33913 0.160106 0.997584 6.82319 -13.3916
34 1 Zr 0.248238 0.103105 0.188876 9.98797 -14.4338
35 1 Zr 0.326425 3.2809e-05 0.167336 7.08216 -13.9371
36 1 Zr 0.318213 0.169614 0.153418 13.0895 -14.4664
37 2 N 0.24255 0.980424 0.994955 8.8438 -5.8176
38 2 N 0.330261 0.0732799 0.00184082 6.55755 -5.92871
39 2 N 0.257102 0.146565 0.99321 8.85845 -5.71447
40 2 N 0.258097 0.074644 0.0952715 7.7024 -5.60485
41 2 N 0.252069 0.00847515 0.178774 6.40492 -6.10791
42 2 N 0.328238 0.999856 0.0829868 5.43098 -6.3078
43 2 N 0.328666 0.0836322 0.178323 3.99635 -5.80345
44 2 N 0.241953 0.179645 0.182561 10.6527 -5.85777
45 2 N 0.347526 0.152038 0.0707605 9.16576 -7.15198
46 1 Zr 0.411055 0.0635036 0.994623 8.29782 -13.5419
47 1 Zr 0.406929 0.995335 0.0702036 7.08843 -14.0207
48 1 Zr 0.493687 0.999852 0.0064287 5.66913 -13.6397
49 1 Zr 0.597668 0.0721094 0.0156436 10.8244 -13.7657
50 1 Zr 0.568733 0.00363525 0.0954083 11.6168 -14.1169
51 1 Zr 0.503612 0.0675347 0.0671232 8.15412 -15.8265
52 1 Zr 0.383645 0.200134 0.0689681 7.82143 -19.3672
53 1 Zr 0.504409 0.178518 0.981975 6.24304 -16.2438
54 1 Zr 0.613657 0.209097 0.0634018 9.7424 -19.7661
55 1 Zr 0.410696 0.0878975 0.159502 4.71501 -13.8616
56 1 Zr 0.490528 0.994672 0.171063 5.06827 -13.8564
57 1 Zr 0.594518 0.0772538 0.165767 8.48906 -14.2186
58 1 Zr 0.499656 0.135171 0.113584 5.37022 -18.8635
59 2 N 0.408974 0.985563 0.993239 6.847 -6.16768
60 2 N 0.560362 0.0178249 0.974467 13.7069 -5.85506
61 2 N 0.486019 0.0720136 0.00945659 12.2643 -7.37318
62 2 N 0.411381 0.137355 0.996255 7.12907 -5.45174
63 2 N 0.597455 0.142082 0.00999378 7.48002 -5.54498
64 2 N 0.415433 0.0721806 0.085354 8.13899 -5.80263
65 2 N 0.409709 0.0048628 0.168369 7.06451 -5.89865
66 2 N 0.485675 0.980994 0.0924404 8.2186 -7.09664
67 2 N 0.584548 0.085249 0.0873037 9.94725 -5.7601
68 2 N 0.579443 0.999131 0.174899 6.62575 -5.99655
69 2 N 0.496156 0.0781685 0.162893 11.1301 -5.89703
70 2 N 0.402615 0.159334 0.175633 11.2098 -7.90459
71 2 N 0.499003 0.186839 0.0615986 8.54488 -5.59066
72 2 N 0.598059 0.163453 0.174611 10.9075 -7.48335
73 1 Zr 0.661251 0.0031592 0.993345 8.6325 -14.3056
74 1 Zr 0.781421 0.0542268 0.983911 8.754 -16.3553
75 1 Zr 0.735134 0.998855 0.092746 7.39972 -20.1168
76 1 Zr 0.689955 0.06537 0.0687325 13.1385 -14.3963
77 1 Zr 0.675991 0.165841 0.998946 6.60827 -14.4507
78 1 Zr 0.757584 0.17178 0.0731266 4.62044 -14.0708
79 1 Zr 0.663719 0.00267721 0.158877 8.84896 -14.2856
80 1 Zr 0.747234 0.10403 0.18255 11.3111 -14.377
81 1 Zr 0.674743 0.168823 0.152471 8.20927 -13.856
82 2 N 0.727069 0.00204591 0.963805 6.78025 -5.82434
83 2 N 0.675413 0.0788327 0.00259014 7.4219 -6.45841
84 2 N 0.755461 0.154244 0.991897 6.29012 -6.01785
85 2 N 0.63807 0.99952 0.0799427 7.55528 -5.97846
86 2 N 0.764118 0.0971261 0.0824311 9.24137 -5.48048
87 2 N 0.747654 0.999282 0.144964 9.65453 -7.83357
88 2 N 0.675383 0.0828361 0.15869 3.72514 -5.99448
89 2 N 0.679261 0.156646 0.080741 7.66878 -5.87922
90 2 N 0.75437 0.18051 0.162893 5.6247 -6.11895
91 1 Zr 0.79086 0.99535 0.0425828 7.73011 -20.0852
92 1 Zr 0.914053 0.0726437 0.00212811 8.00987 -13.9349
93 1 Zr 0.914062 0.00339159 0.0848446 5.29522 -13.8434
94 1 Zr 0.833373 0.0755758 0.0925795 8.62213 -13.9694
95 1 Zr 0.839252 0.165857 0.999167 4.71531 -14.1495
96 1 Zr 0.918542 0.16947 0.0678702 5.02113 -14.2207
97 1 Zr 0.82562 0.00172874 0.167866 4.21206 -13.9328
98 1 Zr 0.927379 0.0946221 0.162728 7.5323 -13.9781
99 1 Zr 0.834286 0.159358 0.166263 8.06347 -14.1856
100 2 N 0.924369 0.990833 0.00866372 7.4113 -5.52775
101 2 N 0.840834 0.0938939 0.0139582 11.5058 -5.92783
102 2 N 0.926354 0.153694 0.987611 11.7066 -7.92374
103 2 N 0.838379 0.996081 0.0664592 7.00967 -8.46772
104 2 N 0.915231 0.0910368 0.0883025 8.91883 -5.99145
105 2 N 0.897689 0.0210687 0.164355 13.4584 -7.72699
106 2 N 0.813591 0.0809788 0.170593 8.07761 -6.26464
107 2 N 0.837744 0.172292 0.0847973 7.68562 -6.00148
108 2 N 0.911658 0.166887 0.162078 7.52445 -6.35174
109 1 Zr 0.103097 0.263495 0.000355829 6.91277 -13.0587
110 1 Zr 0.0223162 0.169079 0.0475638 9.2686 -17.0569
111 1 Zr 0.147805 0.22872 0.0820048 11.224 -16.6828
112 1 Zr 0.987612 0.318519 0.00584853 10.8005 -15.3124
113 1 Zr 0.0852154 0.335151 0.0791561 10.3831 -13.8441
114 1 Zr 0.179692 0.337968 0.996 3.99237 -14.0215
115 1 Zr 0.0825904 0.258338 0.176411 6.64252 -14.6292
116 1 Zr 0.997757 0.323589 0.16559 7.42589 -14.2029
117 1 Zr 0.158613 0.32199 0.170488 8.08902 -14.8546
118 2 N 0.0322998 0.255756 0.00485167 8.21124 -5.47761
119 2 N 0.193271 0.255791 0.995212 9.03466 -5.8144
120 2 N 0.0999374 0.347748 0.998279 5.48166 -5.67693
121 2 N 0.0976821 0.255959 0.086827 8.54333 -7.08974
122 2 N 0.00442283 0.240815 0.16631 7.36722 -6.73012
123 2 N 0.160724 0.241711 0.188515 8.76669 -5.83029
124 2 N 0.00239926 0.314075 0.0939096 9.98996 -5.43248
125 2 N 0.0722827 0.341516 0.159512 10.6272 -7.59002
126 2 N 0.169978 0.342097 0.0735265 11.3716 -5.70519
127 1 Zr 0.253256 0.224694 0.0090566 9.40103 -14.3871
128 1 Zr 0.334983 0.25882 0.08464 6.26784 -19.7086
129 1 Zr 0.254495 0.33768 0.0889845 8.23496 -15.3157
130 1 Zr 0.349226 0.311831 0.0223053 14.3274 -14.281
131 1 Zr 0.210561 0.266262 0.119314 7.94465 -17.7752
132 1 Zr 0.352402 0.300419 0.154944 9.59508 -14.4358
133 2 N 0.322465 0.246393 0.986098 10.001 -5.49802
134 2 N 0.262888 0.339817 0.011135 7.57804 -5.96918
135 2 N 0.281986 0.245587 0.083461 10.7852 -7.8941
136 2 N 0.328261 0.230855 0.179087 11.1453 -5.83042
137 2 N 0.267703 0.325843 0.175432 9.10059 -5.06037
138 2 N 0.332922 0.358025 0.0891837 6.97416 -5.91675
139 1 Zr 0.426399 0.212174 0.992689 11.5413 -19.1773
140 1 Zr 0.573221 0.220908 0.988071 11.9528 -19.6032
141 1 Zr 0.502452 0.254468 0.0844372 7.39801 -13.1461
142 1 Zr 0.421796 0.345789 0.088379 7.54714 -13.7932
143 1 Zr 0.509904 0.346925 0.989954 8.16273 -13.7635
144 1 Zr 0.578281 0.351101 0.0893257 7.52538 -13.6378
145 1 Zr 0.430382 0.175581 0.129824 10.3655 -17.8069
146 1 Zr 0.572055 0.171193 0.124611 10.3725 -17.553
147 1 Zr 0.499301 0.340052 0.151674 6.4951 -14.3357
148 2 N 0.512428 0.272596 0.996995 6.61116 -5.85375
149 2 N 0.412929 0.334583 0.00608814 7.70776 -6.13205
150 2 N 0.588211 0.341678 0.000502485 6.11322 -5.4304
151 2 N 0.431476 0.271327 0.0883803 9.6132 -5.353
152 2 N 0.575167 0.276704 0.0892871 10.6389 -5.35919
153 2 N 0.501558 0.267555 0.168508 6.03281 -5.08529
154 2 N 0.41131 0.333658 0.168972 9.25326 -6.28548
155 2 N 0.499435 0.34584 0.0761637 5.46319 -5.814
156 2 N 0.581023 0.339557 0.174267 6.0647 -6.27984
157 1 Zr 0.749625 0.23307 0.993926 8.17709 -15.211
158 1 Zr 0.672209 0.262551 0.0914526 6.57945 -16.609
159 1 Zr 0.673206 0.34129 0.00312972 10.7313 -13.6095
160 1 Zr 0.744413 0.336285 0.0790933 7.64189 -14.0084
161 1 Zr 0.760426 0.261146 0.162789 11.017 -14.3901
162 1 Zr 0.647211 0.318782 0.161887 11.951 -14.6804
163 2 N 0.665742 0.263566 0.993898 10.0608 -5.09703
164 2 N 0.751034 0.323979 0.999727 5.23703 -5.96428
165 2 N 0.733065 0.253717 0.0815343 7.72369 -6.73113
166 2 N 0.669899 0.238504 0.178874 11.9972 -5.56138
167 2 N 0.662684 0.349155 0.0805976 3.76017 -6.10641
168 2 N 0.737311 0.333619 0.163003 6.07555 -5.73259
169 1 Zr 0.937141 0.252151 0.0234443 9.55934 -17.1299
170 1 Zr 0.826475 0.249127 0.0880989 7.40655 -14.4478
171 1 Zr 0.829475 0.331796 0.987519 6.97786 -13.7369
172 1 Zr 0.904712 0.321038 0.0797395 4.05533 -13.707
173 1 Zr 0.933346 0.243166 0.171463 7.61665 -14.1224
174 1 Zr 0.845772 0.330339 0.158527 6.83754 -13.5565
175 2 N 0.83151 0.246825 0.0063636 9.78648 -5.68738
176 2 N 0.905017 0.332543 0.998611 8.1938 -6.45511
177 2 N 0.914794 0.243587 0.0790165 12.376 -7.07475
178 2 N 0.837128 0.246787 0.169298 4.73266 -5.79345
179 2 N 0.82309 0.329639 0.0772637 6.54522 -5.94958
180 2 N 0.914491 0.314391 0.152329 10.1571 -6.5066
181 1 Zr 0.0823641 0.431551 0.00529662 6.60601 -15.5915
182 1 Zr 0.993954 0.392553 0.0653728 9.94526 -13.9695
183 1 Zr 0.164767 0.418103 0.0865367 6.43456 -14.0871
184 1 Zr 0.00842053 0.517717 0.00877929 8.83107 -13.4511
185 1 Zr 0.0846881 0.585184 0.0080137 6.31443 -13.9726
186 1 Zr 0.0610244 0.486935 0.0807746 8.70261 -14.2438
187 1 Zr 0.0033278 0.598898 0.0691461 6.41921 -13.5742
188 1 Zr 0.191391 0.476966 0.991508 8.82126 -16.2957
189 1 Zr 0.153412 0.579617 0.0983886 8.25127 -14.6011
190 1 Zr 0.0778728 0.380348 0.201956 7.65146 -19.5995
191 1 Zr 0.991454 0.502616 0.189231 6.49583 -14.4127
192 1 Zr 0.0789149 0.620785 0.201888 8.72405 -19.796
193 1 Zr 0.123444 0.498317 0.14866 10.3269 -15.5622
194 2 N 0.988875 0.445194 0.0224932 9.36221 -6.23247
195 2 N 0.178293 0.419161 0.994685 7.71434 -7.21652
196 2 N 0.0818993 0.517635 0.980801 8.56386 -6.89927
197 2 N 0.985527 0.585531 0.988789 12.1064 -5.81474
198 2 N 0.173818 0.577625 0.996699 5.75836 -5.20587
199 2 N 0.0802874 0.409478 0.080655 11.5611 -5.97764
200 2 N 0.988804 0.407783 0.13955 7.20432 -4.94838
201 2 N 0.183149 0.399086 0.156094 11.3558 -7.91661
202 2 N 0.996765 0.522079 0.079965 8.9404 -7.42003
203 2 N 0.0834836 0.584995 0.0807253 11.713 -6.32634
204 2 N 0.0597148 0.501036 0.160592 5.49378 -6.31993
205 2 N 0.00149396 0.601129 0.14074 5.22041 -5.44144
206 2 N 0.136943 0.496464 0.0896514 7.43875 -7.23158
207 2 N 0.183348 0.599892 0.161043 10.5145 -7.83149
208 1 Zr 0.256638 0.409416 0.994495 8.45769 -13.7382
209 1 Zr 0.340684 0.429093 0.0894451 9.53519 -13.647
210 1 Zr 0.260752 0.593911 5.9166e-05 8.16474 -14.1564
211 1 Zr 0.213734 0.515545 0.0674055 12.0985 -15.7941
212 1 Zr 0.336701 0.498571 0.996952 6.8193 -13.5738
213 1 Zr 0.341964 0.573853 0.0978081 8.15404 -13.7854
214 1 Zr 0.255654 0.415577 0.158351 5.05285 -14.7835
215 1 Zr 0.256805 0.582563 0.167596 7.61769 -14.2981
216 1 Zr 0.304081 0.50031 0.139449 5.81039 -15.2509
217 2 N 0.337971 0.419879 0.00601531 4.25156 -5.81482
218 2 N 0.266604 0.519366 0.998872 7.80338 -6.01567
219 2 N 0.347466 0.581057 0.00741973 4.91035 -5.6843
220 2 N 0.250363 0.427378 0.071996 8.15615 -5.3658
221 2 N 0.336351 0.419163 0.172609 7.41277 -5.99948
222 2 N 0.260581 0.582872 0.0782153 7.18233 -5.70352
223 2 N 0.224819 0.500675 0.154716 8.06637 -5.46134
224 2 N 0.331388 0.503608 0.0812767 9.2599 -7.37951
225 2 N 0.345295 0.587917 0.173136 9.28045 -5.8105
226 1 Zr 0.418698 0.410459 0.00359455 5.75642 -14.0151
227 1 Zr 0.577925 0.423864 0.0074126 9.04495 -13.9379
228 1 Zr 0.501329 0.445691 0.116653 7.60985 -14.622
229 1 Zr 0.432276 0.577313 0.0142121 10.1245 -14.1775
230 1 Zr 0.407105 0.502825 0.0776 9.74571 -14.0218
231 1 Zr 0.5015 0.501085 0.985753 7.45603 -13.7005
232 1 Zr 0.57847 0.578055 0.00904112 9.05265 -13.6847
233 1 Zr 0.599628 0.500308 0.0645451 7.80185 -14.6613
234 1 Zr 0.49743 0.548843 0.117628 7.73974 -14.6521
235 1 Zr 0.408872 0.414314 0.166261 7.80826 -14.1212
236 1 Zr 0.583833 0.417001 0.168935 5.79082 -13.9234
237 1 Zr 0.420747 0.578657 0.173437 7.05716 -13.8376
238 1 Zr 0.501836 0.496705 0.188591 6.73428 -21.5438
239 1 Zr 0.582245 0.576213 0.174041 6.54243 -13.911
240 2 N 0.497178 0.421692 0.994123 4.72184 -5.63179
241 2 N 0.419431 0.491658 0.993593 7.19823 -5.99958
242 2 N 0.592293 0.500972 0.998996 7.23957 -6.78174
243 2 N 0.502397 0.577774 0.996864 6.43004 -6.14202
244 2 N 0.432675 0.427964 0.0853031 8.43339 -6.05752
245 2 N 0.563477 0.426276 0.0913694 10.923 -6.51177
246 2 N 0.501932 0.40793 0.193478 6.16491 -5.76999
247 2 N 0.435955 0.576992 0.0967698 9.21072 -6.5744
248 2 N 0.403339 0.499891 0.155079 7.67335 -5.36689
249 2 N 0.503995 0.49969 0.0613911 7.90736 -5.79783
250 2 N 0.564679 0.574842 0.0937847 10.4682 -6.17432
251 2 N 0.603546 0.501836 0.161669 8.74762 -5.51404
252 2 N 0.503322 0.583838 0.197998 6.53645 -5.72542
253 1 Zr 0.740228 0.418308 0.995388 3.98701 -14.171
254 1 Zr 0.654728 0.425039 0.0956807 10.4547 -14.4915
255 1 Zr 0.673472 0.498099 0.997951 6.83597 -13.5904
256 1 Zr 0.755706 0.593376 0.00332181 8.76796 -14.4655
257 1 Zr 0.755964 0.500527 0.0898525 8.00864 -13.6843
258 1 Zr 0.651999 0.576151 0.0982572 10.5307 -14.4575
259 1 Zr 0.744478 0.41663 0.164174 7.51304 -14.4043
260 1 Zr 0.685166 0.498472 0.165558 6.60798 -14.713
261 1 Zr 0.744123 0.584353 0.165294 7.32204 -14.1823
262 2 N 0.662088 0.421035 0.00328199 6.2067 -5.9966
263 2 N 0.749899 0.513752 0.00274472 6.91269 -5.98523
264 2 N 0.667142 0.579224 0.00280841 7.57408 -5.45914
265 2 N 0.746948 0.417215 0.0778843 4.24347 -5.78552
266 2 N 0.665065 0.412883 0.167903 6.43617 -6.19289
267 2 N 0.680791 0.501385 0.0854229 5.59367 -6.36367
268 2 N 0.748418 0.584817 0.0796647 4.26837 -5.903
269 2 N 0.770582 0.500032 0.167747 7.8086 -5.68399
270 2 N 0.662083 0.589528 0.168413 4.77271 -6.10308
271 1 Zr 0.925267 0.403439 0.992455 10.271 -13.6125
272 1 Zr 0.832357 0.419403 0.0823649 5.28508 -14.0892
273 1 Zr 0.820263 0.480748 0.991946 5.95099 -13.4918
274 1 Zr 0.901024 0.548051 0.992275 8.08637 -16.3671
275 1 Zr 0.93769 0.515773 0.0675476 10.0755 -17.2171
276 1 Zr 0.834982 0.58186 0.0828704 5.90042 -14.0427
277 1 Zr 0.934325 0.385097 0.203998 8.52759 -20.4563
278 1 Zr 0.877748 0.503629 0.124691 5.4161 -18.297
279 1 Zr 0.925176 0.622894 0.199408 8.17374 -19.4084
280 2 N 0.814854 0.405513 0.997381 9.03103 -5.96161
281 2 N 0.892586 0.467128 0.993636 9.55836 -5.65689
282 2 N 0.842178 0.576501 0.995611 7.27421 -6.29691
283 2 N 0.904868 0.402355 0.0719836 7.84074 -5.39253
284 2 N 0.822446 0.402896 0.154986 10.2263 -7.94859
285 2 N 0.831285 0.503225 0.0764254 7.27915 -6.57905
286 2 N 0.910573 0.596885 0.0788451 7.06204 -5.46309
287 2 N 0.934554 0.504298 0.172334 8.0456 -7.03389
288 2 N 0.816202 0.598119 0.159357 10.4431 -7.65802
289 1 Zr 0.992243 0.667075 0.999492 7.07724 -15.8279
290 1 Zr 0.086895 0.749649 0.00569879 7.92052 -14.2223
291 1 Zr 0.0881187 0.661353 0.0780689 9.89892 -13.7214
292 1 Zr 0.991175 0.762537 0.0770043 8.84374 -13.8131
293 1 Zr 0.176613 0.660893 0.992829 9.70299 -13.9337
294 1 Zr 0.183755 0.737563 0.0914636 7.0037 -14.3691
295 1 Zr 0.00259117 0.670608 0.165597 6.93367 -13.3804
296 1 Zr 0.0854517 0.753177 0.176091 8.55351 -14.7165
297 1 Zr 0.153798 0.676932 0.165297 9.38571 -14.345
298 2 N 0.101869 0.672268 0.00194843 8.68348 -6.14194
299 2 N 0.00452848 0.75597 0.999003 6.97379 -6.35837
300 2 N 0.177991 0.748591 0.99738 6.87611 -6.27259
301 2 N 0.00850479 0.685376 0.0770815 6.86033 -5.79811
302 2 N 0.102521 0.738502 0.0878254 10.2694 -5.6878
303 2 N 0.0779801 0.660904 0.160058 8.33898 -7.69655
304 2 N 0.00464514 0.755338 0.152911 10.4547 -5.80635
305 2 N 0.176829 0.655818 0.0737361 7.96392 -5.78083
306 2 N 0.171207 0.754756 0.16901 7.02251 -6.02338
307 1 Zr 0.241701 0.769058 0.998992 8.98151 -15.5435
308 1 Zr 0.256993 0.663329 0.087012 9.9383 -14.0166
309 1 Zr 0.334911 0.665527 0.0125894 7.38793 -13.8366
310 1 Zr 0.329899 0.738195 0.0985298 7.60826 -16.5652
311 1 Zr 0.245518 0.747862 0.174632 6.4853 -13.9998
312 1 Zr 0.359236 0.68558 0.166409 12.4877 -14.8037
313 2 N 0.256046 0.674766 0.00200013 6.86179 -5.99347
314 2 N 0.335869 0.740165 0.00137332 9.83128 -5.05649
315 2 N 0.269775 0.74398 0.0895761 8.44493 -6.99508
316 2 N 0.265404 0.668792 0.163889 7.02617 -5.50866
317 2 N 0.340496 0.651376 0.0869906 9.26732 -6.18006
318 2 N 0.326718 0.768753 0.183221 12.751 -5.87906
319 1 Zr 0.41814 0.779922 0.00285186 7.21377 -18.656
320 1 Zr 0.423193 0.653565 0.0841716 8.02595 -13.5333
321 1 Zr 0.511788 0.652789 0.987807 7.51328 -13.6709
322 1 Zr 0.582228 0.782308 0.00230247 7.03816 -19.083
323 1 Zr 0.578389 0.65219 0.0874246 8.02386 -13.6332
324 1 Zr 0.500539 0.748168 0.0749141 8.65022 -13.5737
325 1 Zr 0.426659 0.81743 0.142461 16.4262 -17.4821
326 1 Zr 0.499572 0.664893 0.156646 8.70827 -14.1622
327 1 Zr 0.569302 0.822317 0.137804 11.7214 -17.3384
328 2 N 0.422949 0.660215 0.00186853 6.61248 -5.39997
329 2 N 0.590729 0.659053 0.00241766 7.1414 -5.49427
330 2 N 0.513953 0.726545 0.994614 5.78733 -5.60853
331 2 N 0.430581 0.729609 0.0821072 8.3748 -5.4803
332 2 N 0.424694 0.665279 0.16939 4.46339 -6.28013
333 2 N 0.501686 0.655268 0.0764406 7.66946 -5.6515
334 2 N 0.572383 0.728297 0.0845259 7.33937 -5.33644
335 2 N 0.57564 0.66442 0.169394 10.2911 -6.37065
336 2 N 0.499477 0.750606 0.163113 8.33474 -4.7596
337 1 Zr 0.67215 0.659532 0.000544459 9.61388 -13.5707
338 1 Zr 0.759284 0.766529 0.999988 10.1088 -15.5202
339 1 Zr 0.7466 0.663563 0.0842915 7.45452 -13.9786
340 1 Zr 0.670784 0.739352 0.0980299 9.36164 -16.5309
341 1 Zr 0.641647 0.682494 0.162452 12.5169 -14.8735
342 1 Zr 0.759355 0.743624 0.171635 10.5738 -14.3017
343 2 N 0.749699 0.67664 0.00138566 8.46286 -5.96762
344 2 N 0.663992 0.739955 0.00282 10.789 -4.92373
345 2 N 0.664119 0.651958 0.0808122 6.78215 -5.90325
346 2 N 0.731989 0.743178 0.0878635 9.51522 -6.78132
347 2 N 0.737936 0.668779 0.163217 6.79454 -5.6392
348 2 N 0.668849 0.767954 0.182557 11.0492 -5.74086
349 1 Zr 0.829816 0.661657 0.99156 11.1834 -14.4148
350 1 Zr 0.926144 0.740302 0.00029019 10.6894 -14.6194
351 1 Zr 0.916006 0.672475 0.0780761 3.88295 -13.891
352 1 Zr 0.824652 0.741806 0.0965649 9.01443 -14.5656
353 1 Zr 0.851563 0.676729 0.168164 7.66626 -14.6489
354 1 Zr 0.927143 0.742022 0.180019 8.30301 -15.0374
355 2 N 0.907892 0.664571 0.000141491 4.8889 -6.11275
356 2 N 0.827052 0.748347 0.00262739 7.73377 -5.77375
357 2 N 0.829682 0.663819 0.0754889 8.26053 -5.79381
358 2 N 0.90926 0.751038 0.09378 8.25312 -5.86623
359 2 N 0.929095 0.663754 0.157159 8.62521 -7.82669
360 2 N 0.835486 0.75748 0.17305 6.7296 -5.95932
361 1 Zr 0.00154137 0.843889 0.0150949 9.85777 -14.7191
362 1 Zr 0.0744629 0.909622 0.99533 9.2373 -13.7667
363 1 Zr 0.0752591 0.815496 0.0815437 10.4017 -14.0589
364 1 Zr 0.0169349 0.940965 0.0766736 13.1682 -16.109
365 1 Zr 0.160424 0.827768 0.00592523 5.11455 -14.0061
366 1 Zr 0.156571 0.918013 0.0933569 8.99544 -19.1222
367 1 Zr 0.967901 0.868714 0.176663 5.3587 -16.8463
368 1 Zr 0.106467 0.939078 0.193252 9.62063 -14.18
369 1 Zr 0.155545 0.850434 0.15121 15.1591 -14.8901
370 2 N 0.0832161 0.826896 0.990801 5.01788 -5.86236
371 2 N 0.0055787 0.923238 0.0198898 14.2122 -7.30949
372 2 N 0.152036 0.917484 0.99471 6.45241 -5.71969
373 2 N 0.000564681 0.835602 0.0908208 8.11394 -5.94511
374 2 N 0.0854061 0.88354 0.0789236 7.27487 -5.74303
375 2 N 0.0937556 0.825463 0.172044 8.83952 -5.8815
376 2 N 0.0332358 0.932246 0.177121 9.32095 -4.98212
377 2 N 0.176238 0.814218 0.0791955 8.91696 -5.59409
378 2 N 0.178979 0.928917 0.181937 10.2352 -6.48612
379 1 Zr 0.223383 0.918633 0.0309441 9.36026 -14.5254
380 1 Zr 0.263635 0.825209 0.0779673 8.98692 -14.8416
381 1 Zr 0.3302 0.845137 0.00213802 8.38468 -13.2913
382 1 Zr 0.324762 0.918885 0.0803013 5.65223 -13.7942
383 1 Zr 0.252757 0.905345 0.185819 10.3983 -13.9834
384 1 Zr 0.326799 0.835257 0.153301 7.28331 -14.2575
385 2 N 0.24185 0.853719 0.00345303 9.03377 -6.13426
386 2 N 0.326579 0.921114 0.996211 3.98744 -5.63905
387 2 N 0.252067 0.915241 0.10819 8.33135 -6.0478
388 2 N 0.244449 0.830338 0.167418 8.209 -6.00246
389 2 N 0.33992 0.843553 0.075597 9.25822 -8.22293
390 2 N 0.329066 0.920122 0.178452 6.64294 -5.99538
391 1 Zr 0.437241 0.908701 0.00531579 8.4837 -15.5825
392 1 Zr 0.377527 0.799948 0.0802887 7.53297 -19.2985
393 1 Zr 0.498362 0.811791 0.994793 6.91302 -13.8391
394 1 Zr 0.592647 0.93477 0.00686406 10.6281 -13.6098
395 1 Zr 0.621445 0.80207 0.0778755 7.85677 -19.4994
396 1 Zr 0.481553 0.922152 0.0757296 8.5345 -16.3793
397 1 Zr 0.411192 0.918895 0.172765 5.89755 -13.8302
398 1 Zr 0.493836 0.858435 0.128008 10.542 -18.6707
399 1 Zr 0.587476 0.914317 0.15961 5.87219 -14.0837
400 2 N 0.407895 0.858707 0.00255991 10.0998 -6.80633
401 2 N 0.594665 0.862793 0.00385739 5.54221 -5.21918
402 2 N 0.520126 0.929396 0.998266 8.07039 -6.18116
403 2 N 0.398023 0.923243 0.101871 11.1284 -5.84823
404 2 N 0.398547 0.84042 0.186043 11.4161 -7.85847
405 2 N 0.50294 0.825393 0.0654889 7.95959 -5.66138
406 2 N 0.573112 0.922382 0.0870414 9.60094 -5.28361
407 2 N 0.597718 0.842366 0.182548 11.2507 -7.9396
408 2 N 0.500075 0.918777 0.174861 7.23327 -5.98741
409 1 Zr 0.668551 0.84381 0.00160359 8.66857 -13.4515
410 1 Zr 0.776937 0.930421 0.990326 12.0923 -16.3605
411 1 Zr 0.742716 0.82572 0.0788439 9.63025 -14.4925
412 1 Zr 0.687549 0.936113 0.0698775 11.864 -14.0899
413 1 Zr 0.67366 0.83334 0.153443 7.35069 -14.2252
414 1 Zr 0.752709 0.901652 0.176622 8.92586 -14.5391
415 2 N 0.757546 0.85308 0.00421696 7.71993 -5.79
416 2 N 0.674354 0.927325 0.00331743 7.04078 -6.48123
417 2 N 0.660244 0.845861 0.0749533 11.0341 -7.48478
418 2 N 0.754446 0.900369 0.0984137 12.3961 -5.64883
419 2 N 0.753841 0.823833 0.167479 8.07435 -6.17872
420 2 N 0.669735 0.920066 0.168733 2.12921 -5.4525
421 1 Zr 0.840027 0.828195 0.00219753 7.78833 -13.678
422 1 Zr 0.932 0.909284 0.997689 9.04624 -14.2748
423 1 Zr 0.912881 0.828754 0.0949213 5.39212 -14.5407
424 1 Zr 0.832266 0.916879 0.0883903 7.64304 -13.8168
425 1 Zr 0.842276 0.844916 0.163101 11.6045 -14.5077
426 1 Zr 0.956799 0.930338 0.129555 5.95226 -19.5562
427 2 N 0.919945 0.819744 0.0150729 8.00822 -5.95891
428 2 N 0.854679 0.90234 0.0179108 10.6419 -5.8674
429 2 N 0.831703 0.821979 0.0861788 4.64498 -5.82847
430 2 N 0.909982 0.922288 0.101429 9.28161 -7.59382
431 2 N 0.921966 0.830954 0.181205 13.6869 -7.46591
432 2 N 0.827737 0.917025 0.169978 11.9625 -6.37606
433 1 Zr 0.0666604 0.00450199 0.240531 13.1492 -16.7587
434 1 Zr 0.975909 0.0938466 0.262762 11.6172 -16.685
435 1 Zr 0.175192 0.0806459 0.263039 6.54606 -13.7027
436 1 Zr 0.0915381 0.173365 0.24472 11.4462 -14.6804
437 1 Zr 0.996057 0.0019106 0.325602 6.91783 -14.3323
438 1 Zr 0.0840093 0.0913838 0.331352 6.55849 -13.7214
439 1 Zr 0.162289 0.998837 0.33317 7.92461 -13.4848
440 1 Zr 0.988853 0.163984 0.335811 6.43263 -14.008
441 1 Zr 0.165628 0.150826 0.336849 6.17845 -13.8898
442 2 N 0.996578 0.968533 0.26684 8.23527 -6.1516
443 2 N 0.0907775 0.084787 0.248558 6.9994 -5.45658
444 2 N 0.0787026 0.997831 0.317015 6.99278 -5.921
445 2 N 0.00958005 0.0826581 0.339643 9.19536 -6.10497
446 2 N 0.165879 0.0059445 0.250123 7.09397 -6.05682
447 2 N 0.15761 0.0756854 0.341278 9.92608 -8.04385
448 2 N 0.98868 0.154148 0.257142 10.7494 -6.55369
449 2 N 0.077813 0.172061 0.328274 4.32146 -5.75448
450 2 N 0.169022 0.15722 0.257273 8.17114 -6.31877
451 1 Zr 0.241233 0.992642 0.259929 9.57491 -14.2491
452 1 Zr 0.338165 0.0816124 0.260722 6.71104 -13.9766
453 1 Zr 0.258745 0.172293 0.256813 7.90431 -14.2646
454 1 Zr 0.263957 0.0923715 0.329417 8.40009 -16.5446
455 1 Zr 0.345432 0.00430415 0.331135 9.79861 -13.6426
456 1 Zr 0.319951 0.159998 0.353438 13.7478 -14.9643
457 2 N 0.257057 0.0809532 0.269063 7.82025 -7.03679
458 2 N 0.264511 0.000702213 0.337868 11.2055 -5.23214
459 2 N 0.32962 0.999838 0.249754 9.67384 -5.93
460 2 N 0.357975 0.0790116 0.339487 6.23406 -6.43435
461 2 N 0.234939 0.180643 0.333822 10.3558 -5.74563
462 2 N 0.336041 0.162411 0.260531 7.23441 -5.67342
463 1 Zr 0.411751 0.99734 0.246819 7.74408 -13.9949
464 1 Zr 0.583171 0.997783 0.257116 6.89057 -14.2051
465 1 Zr 0.502261 0.0886863 0.236172 7.5093 -13.2784
466 1 Zr 0.418216 0.165248 0.252235 7.98445 -14.1392
467 1 Zr 0.581413 0.164928 0.252278 4.0359 -14.0852
468 1 Zr 0.424686 0.0986321 0.349012 9.6324 -14.8087
469 1 Zr 0.503725 0.981439 0.326835 8.53584 -13.6996
470 1 Zr 0.574052 0.0907377 0.360503 8.21055 -15.0881
471 1 Zr 0.503184 0.172916 0.314519 6.14651 -14.0755
472 2 N 0.41744 0.080144 0.248489 3.73017 -5.60516
473 2 N 0.426744 0.000658395 0.326839 8.9471 -5.56626
474 2 N 0.49982 0.00107885 0.249682 3.86791 -5.83446
475 2 N 0.583878 0.0799592 0.242554 6.3367 -6.02072
476 2 N 0.577419 0.00408552 0.33603 8.67015 -5.70662
477 2 N 0.50449 0.0921967 0.309004 5.69927 -5.8162
478 2 N 0.415628 0.172487 0.332002 4.39033 -5.9805
479 2 N 0.49851 0.170875 0.224215 5.73696 -5.41834
480 2 N 0.582437 0.163633 0.329968 4.72021 -6.05881
481 1 Zr 0.758753 0.00564447 0.25199 8.20997 -15.0167
482 1 Zr 0.660153 0.0857661 0.242807 6.22303 -13.9933
483 1 Zr 0.735781 0.180654 0.245374 7.05785 -14.9779
484 1 Zr 0.654021 0.994578 0.32899 5.53908 -14.0289
485 1 Zr 0.735075 0.0992256 0.32507 9.95648 -16.2114
486 1 Zr 0.675534 0.160445 0.355529 11.2433 -14.9482
487 2 N 0.67707 0.00413125 0.237079 8.91512 -5.59407
488 2 N 0.739365 0.0920006 0.263633 7.79483 -7.05886
489 2 N 0.737166 0.00608365 0.325223 8.31411 -5.33775
490 2 N 0.651757 0.0752444 0.326247 7.32372 -5.50114
491 2 N 0.658511 0.163463 0.260703 6.17487 -5.69199
492 2 N 0.759347 0.184197 0.328427 10.5423 -5.72754
493 1 Zr 0.946731 0.995116 0.177378 14.8098 -16.9368
494 1 Zr 0.820196 0.0843331 0.254993 7.05306 -14.5533
495 1 Zr 0.89978 0.181591 0.241235 8.86479 -14.8347
496 1 Zr 0.835675 0.00117184 0.326592 8.10677 -13.5673
497 1 Zr 0.918328 0.0638388 0.325245 8.0742 -14.7376
498 1 Zr 0.828307 0.157039 0.326426 7.26657 -14.0963
499 2 N 0.838632 0.0032903 0.246303 7.21035 -6.05373
500 2 N 0.896206 0.0993911 0.238519 11.7331 -5.5534
501 2 N 0.918496 0.994226 0.319326 10.2393 -6.49342
502 2 N 0.8426 0.0788285 0.335777 11.3681 -7.8309
503 2 N 0.822988 0.174661 0.247175 4.05636 -6.17909
504 2 N 0.910192 0.170968 0.327089 4.29942 -5.62717
505 1 Zr 0.00581634 0.257275 0.239639 9.32946 -14.3945
506 1 Zr 0.163516 0.232282 0.269959 10.6102 -14.2905
507 1 Zr 0.0946369 0.330677 0.264738 9.09726 -16.5759
508 1 Zr 0.0831366 0.249472 0.339446 3.93803 -14.037
509 1 Zr 0.999679 0.325884 0.338427 7.78682 -13.6849
510 1 Zr 0.161417 0.355916 0.323977 12.8534 -14.8765
511 2 N 0.0831925 0.269432 0.257813 8.83895 -6.88735
512 2 N 0.996929 0.245671 0.322373 7.76344 -6.17502
513 2 N 0.162059 0.263113 0.333527 6.64702 -6.01344
514 2 N 0.00194963 0.336994 0.264063 9.63007 -5.39104
515 2 N 0.0789527 0.331907 0.351541 6.78669 -5.80735
516 2 N 0.178632 0.334249 0.233887 9.12917 -5.63973
517 1 Zr 0.33444 0.245014 0.253805 6.86454 -14.091
518 1 Zr 0.255884 0.342201 0.249627 6.81962 -13.8249
519 1 Zr 0.245614 0.259002 0.341714 5.29429 -14.0301
520 1 Zr 0.329622 0.330932 0.334454 10.7433 -14.0655
521 2 N 0.251965 0.254208 0.257999 8.72905 -5.36323
522 2 N 0.326241 0.242311 0.334676 5.86873 -5.9299
523 2 N 0.243669 0.336602 0.330774 6.30793 -6.09436
524 2 N 0.338516 0.331994 0.255255 4.22995 -5.68635
525 1 Zr 0.502325 0.249264 0.244794 6.36447 -13.8405
526 1 Zr 0.416205 0.330999 0.248392 5.53498 -13.8649
527 1 Zr 0.571716 0.337612 0.25402 9.07941 -14.8502
528 1 Zr 0.410019 0.254139 0.321716 9.60061 -14.21
529 1 Zr 0.581847 0.242615 0.323242 5.73352 -14.2055
530 1 Zr 0.503245 0.324405 0.330542 6.42866 -13.5141
531 2 N 0.417331 0.247756 0.237033 8.10238 -5.51011
532 2 N 0.583732 0.254265 0.242934 9.44474 -5.63767
533 2 N 0.494358 0.247267 0.322767 4.77512 -6.07047
534 2 N 0.410962 0.332111 0.332854 4.24556 -5.49531
535 2 N 0.494632 0.33162 0.254971 4.94941 -6.81074
536 2 N 0.588294 0.322077 0.34478 5.84235 -6.75472
537 1 Zr 0.663209 0.248654 0.259156 10.4499 -14.7705
538 1 Zr 0.744988 0.341562 0.243814 7.96673 -13.9719
539 1 Zr 0.750112 0.260852 0.343466 5.76157 -14.2755
540 1 Zr 0.674627 0.324898 0.326473 8.03584 -14.5926
541 2 N 0.748904 0.26157 0.253653 7.46775 -5.73246
542 2 N 0.666197 0.241787 0.343404 7.45448 -5.6294
543 2 N 0.660636 0.334782 0.247729 9.33433 -5.74545
544 2 N 0.752445 0.34041 0.331024 6.79372 -5.91463
545 1 Zr 0.832314 0.251284 0.255314 6.72725 -14.378
546 1 Zr 0.906553 0.330852 0.2589 7.80279 -16.7746
547 1 Zr 0.91568 0.254941 0.332135 7.60798 -14.1937
548 1 Zr 0.837162 0.355717 0.312008 12.4951 -14.8377
549 2 N 0.917373 0.271003 0.252023 7.72357 -6.91676
550 2 N 0.83395 0.266264 0.331668 6.23803 -5.66834
551 2 N 0.818955 0.333909 0.229029 11.7521 -5.73798
552 2 N 0.918529 0.335311 0.347322 6.12182 -5.90748
553 1 Zr 0.00764097 0.425924 0.222588 7.42409 -19.3303
554 1 Zr 0.141328 0.426907 0.183169 8.99057 -17.4032
555 1 Zr 0.0839224 0.498976 0.244181 11.6702 -13.3613
556 1 Zr 0.00364353 0.581341 0.219878 6.66361 -18.8621
557 1 Zr 0.140189 0.570844 0.185469 14.2172 -17.2104
558 1 Zr 0.0938637 0.423791 0.343067 4.99936 -13.9496
559 1 Zr 0.0130631 0.487745 0.347871 7.77385 -13.9729
560 1 Zr 0.0842335 0.579299 0.34757 5.05028 -13.6929
561 1 Zr 0.167058 0.500954 0.329284 6.14419 -14.0348
562 2 N 0.106298 0.434863 0.26768 9.80365 -5.4862
563 2 N 0.00143618 0.408436 0.342112 6.49246 -5.61076
564 2 N 0.17025 0.42041 0.345484 6.12585 -6.2339
565 2 N 0.00767999 0.484113 0.273848 7.54148 -5.76238
566 2 N 0.0765481 0.563976 0.275758 8.98444 -5.50206