ITEM: TIMESTEP
72
ITEM: NUMBER OF ATOMS
511
ITEM: BOX BOUNDS pp pp pp
0.0000000000000000e+00 1.8160000000000000e+01
0.0000000000000000e+00 1.8160000000000000e+01
0.0000000000000000e+00 1.8160000000000000e+01
ITEM: ATOMS id type element xs ys zs c_csym c_eng
2 1 Zr 0.119179 0.119179 1.50053e-14 8.18931 -14.3407
3 1 Zr 0.119179 -1.12849e-14 0.119179 8.18931 -14.3407
4 1 Zr 2.6202e-14 0.119179 0.119179 8.18931 -14.3407
5 1 Zr 0.254633 2.0127e-14 3.728e-15 12.5314 -14.327
6 1 Zr 0.251268 0.124369 0.124369 14.3945 -14.3454
7 1 Zr 2.41073e-14 0.254633 2.23017e-14 12.5314 -14.327
8 1 Zr 0.124369 0.251268 0.124369 14.3945 -14.3454
9 1 Zr 0.251511 0.251511 6.36421e-15 14.2275 -14.3379
10 1 Zr 4.79656e-14 -4.54857e-14 0.254633 12.5314 -14.327
11 1 Zr 0.124369 0.124369 0.251268 14.3945 -14.3454
12 1 Zr 0.251511 -6.90865e-14 0.251511 14.2275 -14.3379
13 1 Zr 2.06719e-14 0.251511 0.251511 14.2275 -14.3379
14 1 Zr 0.250311 0.250311 0.250311 15.2561 -14.3397
15 2 N 0.132559 -1.6989e-14 -1.21056e-14 10.9693 -6.09516
16 2 N -1.65922e-14 0.132559 -2.8005e-14 10.9693 -6.09516
17 2 N 0.248414 0.126154 1.34745e-15 13.4431 -6.00777
18 2 N 0.126154 0.248414 -5.10987e-15 13.4431 -6.00777
19 2 N -2.66906e-14 -4.34772e-15 0.132559 10.9693 -6.09516
20 2 N 0.125841 0.125841 0.125841 0.152566 -5.99542
21 2 N 0.126154 3.07004e-14 0.248414 13.4431 -6.00777
22 2 N -1.33635e-14 0.126154 0.248414 13.4431 -6.00777
23 2 N 0.248414 1.45898e-14 0.126154 13.4431 -6.00777
24 2 N 0.250059 0.125304 0.250059 10.0336 -6.0537
25 2 N -8.40401e-15 0.248414 0.126154 13.4431 -6.00777
26 2 N 0.125304 0.250059 0.250059 10.0336 -6.0537
27 2 N 0.250059 0.250059 0.125304 10.0336 -6.0537
28 1 Zr 0.372926 0.124575 1.64769e-15 13.6839 -14.3546
29 1 Zr 0.372926 -2.06892e-14 0.124575 13.6839 -14.3546
30 1 Zr 0.5 2.50494e-14 9.9883e-15 5.12285 -14.328
31 1 Zr 0.627074 0.124575 1.83225e-14 13.6839 -14.3546
32 1 Zr 0.627074 8.12325e-16 0.124575 13.6839 -14.3546
33 1 Zr 0.5 0.12502 0.12502 10.1945 -14.3449
34 1 Zr 0.37479 0.249716 0.125048 15.0704 -14.3504
35 1 Zr 0.5 0.250681 8.11524e-15 15.023 -14.3362
36 1 Zr 0.62521 0.249716 0.125048 15.0704 -14.3504
37 1 Zr 0.37479 0.125048 0.249716 15.0704 -14.3504
38 1 Zr 0.5 -6.1074e-14 0.250681 15.023 -14.3362
39 1 Zr 0.62521 0.125048 0.249716 15.0704 -14.3504
40 1 Zr 0.5 0.250188 0.250188 15.372 -14.3392
41 2 N 0.376798 -3.90322e-15 1.11989e-15 9.4351 -6.16946
42 2 N 0.623202 -1.4754e-14 -1.30929e-14 14.1291 -6.16946
43 2 N 0.5 0.125651 -6.06761e-15 4.9794 -5.99818
44 2 N 0.375465 0.24951 -1.37068e-15 9.94869 -6.09316
45 2 N 0.624535 0.24951 -1.09831e-14 9.94869 -6.09316
46 2 N 0.375453 0.124638 0.124638 9.97976 -6.09971
47 2 N 0.375465 3.81173e-14 0.24951 9.94869 -6.09316
48 2 N 0.5 3.1275e-15 0.125651 4.9794 -5.99818
49 2 N 0.624547 0.124638 0.124638 9.97976 -6.09971
50 2 N 0.624535 2.11367e-14 0.24951 9.94869 -6.09316
51 2 N 0.5 0.125269 0.250355 10.1183 -6.06002
52 2 N 0.375122 0.250003 0.250003 10.2125 -6.07756
53 2 N 0.5 0.250355 0.125269 10.1183 -6.06002
54 2 N 0.624878 0.250003 0.250003 10.2125 -6.07756
55 1 Zr 0.745367 5.17774e-14 4.08883e-14 12.5314 -14.327
56 1 Zr 0.880821 0.119179 3.69449e-14 8.18931 -14.3407
57 1 Zr 0.880821 8.91923e-15 0.119179 8.18931 -14.3407
58 1 Zr 0.748732 0.124369 0.124369 14.3945 -14.3454
59 1 Zr 0.748489 0.251511 3.2207e-14 14.2275 -14.3379
60 1 Zr 0.875631 0.251268 0.124369 14.3945 -14.3454
61 1 Zr 0.748489 -1.96014e-14 0.251511 14.2275 -14.3379
62 1 Zr 0.875631 0.124369 0.251268 14.3945 -14.3454
63 1 Zr 0.749689 0.250311 0.250311 15.2561 -14.3397
64 2 N 0.867441 -6.56247e-15 -9.03335e-15 10.9693 -6.09516
65 2 N 0.751586 0.126154 -1.49248e-14 13.4431 -6.00777
66 2 N 0.873846 0.248414 -2.2593e-14 13.4431 -6.00777
67 2 N 0.751586 -4.98052e-15 0.126154 13.4431 -6.00777
68 2 N 0.874159 0.125841 0.125841 0.152566 -5.99542
69 2 N 0.873846 9.91987e-15 0.248414 13.4431 -6.00777
70 2 N 0.749941 0.125304 0.250059 10.0336 -6.0537
71 2 N 0.749941 0.250059 0.125304 10.0336 -6.0537
72 2 N 0.874696 0.250059 0.250059 10.0336 -6.0537
73 1 Zr 0.124575 0.372926 -8.34937e-15 13.6839 -14.3546
74 1 Zr 1.72318e-14 0.372926 0.124575 13.6839 -14.3546
75 1 Zr 0.249716 0.37479 0.125048 15.0704 -14.3504
76 1 Zr 6.19155e-14 0.5 -1.22864e-14 5.12285 -14.328
77 1 Zr 0.124575 0.627074 -4.90425e-15 13.6839 -14.3546
78 1 Zr 0.12502 0.5 0.12502 10.1945 -14.3449
79 1 Zr 4.86932e-14 0.627074 0.124575 13.6839 -14.3546
80 1 Zr 0.250681 0.5 -1.01282e-14 15.023 -14.3362
81 1 Zr 0.249716 0.62521 0.125048 15.0704 -14.3504
82 1 Zr 0.125048 0.37479 0.249716 15.0704 -14.3504
83 1 Zr 4.03481e-14 0.5 0.250681 15.023 -14.3362
84 1 Zr 0.125048 0.62521 0.249716 15.0704 -14.3504
85 1 Zr 0.250188 0.5 0.250188 15.372 -14.3392
86 2 N -1.25882e-14 0.376798 4.9508e-15 14.1291 -6.16946
87 2 N 0.24951 0.375465 7.39432e-15 9.94869 -6.09316
88 2 N 0.125651 0.5 4.33569e-15 4.9794 -5.99818
89 2 N -3.78139e-14 0.623202 2.95239e-15 14.1291 -6.16946
90 2 N 0.24951 0.624535 3.83933e-15 9.94869 -6.09316
91 2 N 0.124638 0.375453 0.124638 9.97976 -6.09971
92 2 N -7.19338e-15 0.375465 0.24951 9.94869 -6.09316
93 2 N 0.250003 0.375122 0.250003 10.2125 -6.07756
94 2 N -2.51251e-14 0.5 0.125651 4.9794 -5.99818
95 2 N 0.124638 0.624547 0.124638 9.97976 -6.09971
96 2 N 0.125269 0.5 0.250355 10.1183 -6.06002
97 2 N -2.8012e-14 0.624535 0.24951 9.94869 -6.09316
98 2 N 0.250355 0.5 0.125269 10.1183 -6.06002
99 2 N 0.250003 0.624878 0.250003 10.2125 -6.07756
100 1 Zr 0.374587 0.374587 -7.45909e-15 9.88398 -14.3529
101 1 Zr 0.625413 0.374587 2.97883e-15 9.88398 -14.3529
102 1 Zr 0.5 0.375176 0.125085 15.2701 -14.3492
103 1 Zr 0.374587 0.625413 -2.42671e-15 9.88398 -14.3529
104 1 Zr 0.375176 0.5 0.125085 15.2701 -14.3492
105 1 Zr 0.5 0.5 1.49924e-16 5.13841 -14.3369
106 1 Zr 0.625413 0.625413 5.89266e-15 9.88398 -14.3529
107 1 Zr 0.624824 0.5 0.125085 15.2701 -14.3492
108 1 Zr 0.5 0.624824 0.125085 15.2701 -14.3492
109 1 Zr 0.375019 0.375019 0.2496 10.1551 -14.3503
110 1 Zr 0.624981 0.375019 0.2496 10.1551 -14.3503
111 1 Zr 0.375019 0.624981 0.2496 10.1551 -14.3503
112 1 Zr 0.5 0.5 0.25018 5.13845 -14.3394
113 1 Zr 0.624981 0.624981 0.2496 10.1551 -14.3503
114 2 N 0.5 0.375291 1.30733e-16 5.07253 -6.06708
115 2 N 0.375291 0.5 3.36645e-17 5.07253 -6.06708
116 2 N 0.624709 0.5 -1.77346e-15 5.07253 -6.06708
117 2 N 0.5 0.624709 2.21951e-15 5.07253 -6.06708
118 2 N 0.37484 0.37484 0.124675 10.1896 -6.06928
119 2 N 0.62516 0.37484 0.124675 10.1896 -6.06928
120 2 N 0.5 0.375104 0.250112 10.2205 -6.07516
121 2 N 0.37484 0.62516 0.124675 10.1896 -6.06928
122 2 N 0.375104 0.5 0.250112 10.2205 -6.07516
123 2 N 0.5 0.5 0.12523 5.12912 -6.08007
124 2 N 0.62516 0.62516 0.124675 10.1896 -6.06928
125 2 N 0.624896 0.5 0.250112 10.2205 -6.07516
126 2 N 0.5 0.624896 0.250112 10.2205 -6.07516
127 1 Zr 0.875425 0.372926 3.61069e-15 13.6839 -14.3546
128 1 Zr 0.750284 0.37479 0.125048 15.0704 -14.3504
129 1 Zr 0.749319 0.5 4.13417e-15 15.023 -14.3362
130 1 Zr 0.875425 0.627074 4.51588e-15 13.6839 -14.3546
131 1 Zr 0.87498 0.5 0.12502 10.1945 -14.3449
132 1 Zr 0.750284 0.62521 0.125048 15.0704 -14.3504
133 1 Zr 0.874952 0.37479 0.249716 15.0704 -14.3504
134 1 Zr 0.749812 0.5 0.250188 15.372 -14.3392
135 1 Zr 0.874952 0.62521 0.249716 15.0704 -14.3504
136 2 N 0.75049 0.375465 -1.61912e-15 9.94869 -6.09316
137 2 N 0.874349 0.5 3.17166e-15 4.9794 -5.99818
138 2 N 0.75049 0.624535 -4.09995e-15 9.94869 -6.09316
139 2 N 0.875362 0.375453 0.124638 9.97976 -6.09971
140 2 N 0.749997 0.375122 0.250003 10.2125 -6.07756
141 2 N 0.749645 0.5 0.125269 10.1183 -6.06002
142 2 N 0.875362 0.624547 0.124638 9.97976 -6.09971
143 2 N 0.874731 0.5 0.250355 10.1183 -6.06002
144 2 N 0.749997 0.624878 0.250003 10.2125 -6.07756
145 1 Zr 8.75792e-14 0.745367 1.57705e-14 12.5314 -14.327
146 1 Zr 0.119179 0.880821 1.15805e-14 8.18931 -14.3407
147 1 Zr 0.124369 0.748732 0.124369 14.3945 -14.3454
148 1 Zr 5.21178e-14 0.880821 0.119179 8.18931 -14.3407
149 1 Zr 0.251511 0.748489 6.11138e-15 14.2275 -14.3379
150 1 Zr 0.251268 0.875631 0.124369 14.3945 -14.3454
151 1 Zr 7.61291e-14 0.748489 0.251511 14.2275 -14.3379
152 1 Zr 0.124369 0.875631 0.251268 14.3945 -14.3454
153 1 Zr 0.250311 0.749689 0.250311 15.2561 -14.3397
154 2 N 0.126154 0.751586 -6.90035e-16 13.4431 -6.00777
155 2 N -2.11119e-14 0.867441 7.61718e-15 10.9693 -6.09516
156 2 N 0.248414 0.873846 -8.3401e-15 13.4431 -6.00777
157 2 N -3.33086e-14 0.751586 0.126154 13.4431 -6.00777
158 2 N 0.125841 0.874159 0.125841 0.152566 -5.99542
159 2 N 0.125304 0.749941 0.250059 10.0336 -6.0537
160 2 N -3.56039e-14 0.873846 0.248414 13.4431 -6.00777
161 2 N 0.250059 0.749941 0.125304 10.0336 -6.0537
162 2 N 0.250059 0.874696 0.250059 10.0336 -6.0537
163 1 Zr 0.372926 0.875425 2.72101e-15 13.6839 -14.3546
164 1 Zr 0.37479 0.750284 0.125048 15.0704 -14.3504
165 1 Zr 0.5 0.749319 9.00506e-15 15.023 -14.3362
166 1 Zr 0.627074 0.875425 1.82569e-14 13.6839 -14.3546
167 1 Zr 0.62521 0.750284 0.125048 15.0704 -14.3504
168 1 Zr 0.5 0.87498 0.12502 10.1945 -14.3449
169 1 Zr 0.37479 0.874952 0.249716 15.0704 -14.3504
170 1 Zr 0.5 0.749812 0.250188 15.372 -14.3392
171 1 Zr 0.62521 0.874952 0.249716 15.0704 -14.3504
172 2 N 0.375465 0.75049 -1.77398e-15 9.94869 -6.09316
173 2 N 0.624535 0.75049 -8.90594e-15 9.94869 -6.09316
174 2 N 0.5 0.874349 -9.29315e-16 4.9794 -5.99818
175 2 N 0.375453 0.875362 0.124638 9.97976 -6.09971
176 2 N 0.375122 0.749997 0.250003 10.2125 -6.07756
177 2 N 0.5 0.749645 0.125269 10.1183 -6.06002
178 2 N 0.624547 0.875362 0.124638 9.97976 -6.09971
179 2 N 0.624878 0.749997 0.250003 10.2125 -6.07756
180 2 N 0.5 0.874731 0.250355 10.1183 -6.06002
181 1 Zr 0.748489 0.748489 2.79916e-14 14.2275 -14.3379
182 1 Zr 0.880821 0.880821 3.12937e-14 8.18931 -14.3407
183 1 Zr 0.875631 0.748732 0.124369 14.3945 -14.3454
184 1 Zr 0.748732 0.875631 0.124369 14.3945 -14.3454
185 1 Zr 0.749689 0.749689 0.250311 15.2561 -14.3397
186 1 Zr 0.875631 0.875631 0.251268 14.3945 -14.3454
187 2 N 0.873846 0.751586 -1.65372e-14 13.4431 -6.00777
188 2 N 0.751586 0.873846 -2.36303e-14 13.4431 -6.00777
189 2 N 0.749941 0.749941 0.125304 10.0336 -6.0537
190 2 N 0.874159 0.874159 0.125841 0.152566 -5.99542
191 2 N 0.874696 0.749941 0.250059 10.0336 -6.0537
192 2 N 0.749941 0.874696 0.250059 10.0336 -6.0537
193 1 Zr 0.124575 -5.35936e-14 0.372926 13.6839 -14.3546
194 1 Zr 2.7966e-14 0.124575 0.372926 13.6839 -14.3546
195 1 Zr 0.249716 0.125048 0.37479 15.0704 -14.3504
196 1 Zr 0.125048 0.249716 0.37479 15.0704 -14.3504
197 1 Zr 7.2119e-14 -5.67743e-14 0.5 5.12285 -14.328
198 1 Zr 0.12502 0.12502 0.5 10.1945 -14.3449
199 1 Zr 0.124575 -1.6791e-14 0.627074 13.6839 -14.3546
200 1 Zr 2.95324e-14 0.124575 0.627074 13.6839 -14.3546
201 1 Zr 0.250681 -7.09864e-14 0.5 15.023 -14.3362
202 1 Zr 0.249716 0.125048 0.62521 15.0704 -14.3504
203 1 Zr 2.70071e-14 0.250681 0.5 15.023 -14.3362
204 1 Zr 0.125048 0.249716 0.62521 15.0704 -14.3504
205 1 Zr 0.250188 0.250188 0.5 15.372 -14.3392
206 2 N -2.72021e-14 3.46243e-14 0.376798 14.1291 -6.16946
207 2 N 0.124638 0.124638 0.375453 9.97976 -6.09971
208 2 N 0.125651 2.89686e-14 0.5 4.9794 -5.99818
209 2 N -2.22111e-14 0.125651 0.5 4.9794 -5.99818
210 2 N 0.24951 4.08148e-14 0.375465 9.94869 -6.09316
211 2 N 0.250355 0.125269 0.5 10.1183 -6.06002
212 2 N -8.7537e-15 0.24951 0.375465 9.94869 -6.09316
213 2 N 0.125269 0.250355 0.5 10.1183 -6.06002
214 2 N 0.250003 0.250003 0.375122 10.2125 -6.07756
215 2 N -3.13622e-14 9.53183e-15 0.623202 14.1291 -6.16946
216 2 N 0.124638 0.124638 0.624547 9.97976 -6.09971
217 2 N 0.24951 1.32011e-14 0.624535 9.94869 -6.09316
218 2 N -1.30741e-14 0.24951 0.624535 9.94869 -6.09316
219 2 N 0.250003 0.250003 0.624878 10.2125 -6.07756
220 1 Zr 0.374587 -5.76646e-14 0.374587 9.88398 -14.3529
221 1 Zr 0.625413 -3.41225e-14 0.374587 9.88398 -14.3529
222 1 Zr 0.5 0.125085 0.375176 15.2701 -14.3492
223 1 Zr 0.375019 0.2496 0.375019 10.1551 -14.3503
224 1 Zr 0.624981 0.2496 0.375019 10.1551 -14.3503
225 1 Zr 0.375176 0.125085 0.5 15.2701 -14.3492
226 1 Zr 0.374587 -2.29954e-14 0.625413 9.88398 -14.3529
227 1 Zr 0.5 -5.58887e-14 0.5 5.13841 -14.3369
228 1 Zr 0.624824 0.125085 0.5 15.2701 -14.3492
229 1 Zr 0.625413 -1.03409e-14 0.625413 9.88398 -14.3529
230 1 Zr 0.5 0.125085 0.624824 15.2701 -14.3492
231 1 Zr 0.375019 0.2496 0.624981 10.1551 -14.3503
232 1 Zr 0.5 0.25018 0.5 5.13845 -14.3394
233 1 Zr 0.624981 0.2496 0.624981 10.1551 -14.3503
234 2 N 0.37484 0.124675 0.37484 10.1896 -6.06928
235 2 N 0.375291 3.20879e-14 0.5 5.07253 -6.06708
236 2 N 0.5 2.87885e-14 0.375291 5.07253 -6.06708
237 2 N 0.62516 0.124675 0.37484 10.1896 -6.06928
238 2 N 0.624709 2.15257e-14 0.5 5.07253 -6.06708
239 2 N 0.5 0.12523 0.5 5.12912 -6.08007
240 2 N 0.375104 0.250112 0.5 10.2205 -6.07516
241 2 N 0.5 0.250112 0.375104 10.2205 -6.07516
242 2 N 0.624896 0.250112 0.5 10.2205 -6.07516
243 2 N 0.37484 0.124675 0.62516 10.1896 -6.06928
244 2 N 0.5 1.43354e-14 0.624709 5.07253 -6.06708
245 2 N 0.62516 0.124675 0.62516 10.1896 -6.06928
246 2 N 0.5 0.250112 0.624896 10.2205 -6.07516
247 1 Zr 0.875425 -3.07269e-14 0.372926 13.6839 -14.3546
248 1 Zr 0.750284 0.125048 0.37479 15.0704 -14.3504
249 1 Zr 0.874952 0.249716 0.37479 15.0704 -14.3504
250 1 Zr 0.749319 -2.93655e-14 0.5 15.023 -14.3362
251 1 Zr 0.87498 0.12502 0.5 10.1945 -14.3449
252 1 Zr 0.875425 -6.14749e-15 0.627074 13.6839 -14.3546
253 1 Zr 0.750284 0.125048 0.62521 15.0704 -14.3504
254 1 Zr 0.749812 0.250188 0.5 15.372 -14.3392
255 1 Zr 0.874952 0.249716 0.62521 15.0704 -14.3504
256 2 N 0.75049 1.71887e-14 0.375465 9.94869 -6.09316
257 2 N 0.875362 0.124638 0.375453 9.97976 -6.09971
258 2 N 0.874349 1.98663e-14 0.5 4.9794 -5.99818
259 2 N 0.749645 0.125269 0.5 10.1183 -6.06002
260 2 N 0.749997 0.250003 0.375122 10.2125 -6.07756
261 2 N 0.874731 0.250355 0.5 10.1183 -6.06002
262 2 N 0.75049 1.15799e-15 0.624535 9.94869 -6.09316
263 2 N 0.875362 0.124638 0.624547 9.97976 -6.09971
264 2 N 0.749997 0.250003 0.624878 10.2125 -6.07756
265 1 Zr 1.22345e-14 0.374587 0.374587 9.88398 -14.3529
266 1 Zr 0.2496 0.375019 0.375019 10.1551 -14.3503
267 1 Zr 0.125085 0.5 0.375176 15.2701 -14.3492
268 1 Zr 4.46411e-14 0.625413 0.374587 9.88398 -14.3529
269 1 Zr 0.2496 0.624981 0.375019 10.1551 -14.3503
270 1 Zr 0.125085 0.375176 0.5 15.2701 -14.3492
271 1 Zr 2.2729e-14 0.374587 0.625413 9.88398 -14.3529
272 1 Zr 0.2496 0.375019 0.624981 10.1551 -14.3503
273 1 Zr 5.6846e-14 0.5 0.5 5.13841 -14.3369
274 1 Zr 0.125085 0.624824 0.5 15.2701 -14.3492
275 1 Zr 0.125085 0.5 0.624824 15.2701 -14.3492
276 1 Zr 6.1341e-14 0.625413 0.625413 9.88398 -14.3529
277 1 Zr 0.25018 0.5 0.5 5.13845 -14.3394
278 1 Zr 0.2496 0.624981 0.624981 10.1551 -14.3503
279 2 N 0.124675 0.37484 0.37484 10.1896 -6.06928
280 2 N -1.39496e-14 0.375291 0.5 5.07253 -6.06708
281 2 N 0.250112 0.375104 0.5 10.2205 -6.07516
282 2 N -2.20398e-14 0.5 0.375291 5.07253 -6.06708
283 2 N 0.124675 0.62516 0.37484 10.1896 -6.06928
284 2 N 0.12523 0.5 0.5 5.12912 -6.08007
285 2 N -3.6156e-14 0.624709 0.5 5.07253 -6.06708
286 2 N 0.250112 0.5 0.375104 10.2205 -6.07516
287 2 N 0.250112 0.624896 0.5 10.2205 -6.07516
288 2 N 0.124675 0.37484 0.62516 10.1896 -6.06928
289 2 N -2.97299e-14 0.5 0.624709 5.07253 -6.06708
290 2 N 0.124675 0.62516 0.62516 10.1896 -6.06928
291 2 N 0.250112 0.5 0.624896 10.2205 -6.07516
292 1 Zr 0.5 0.375098 0.375098 15.3679 -14.3498
293 1 Zr 0.375098 0.5 0.375098 15.3679 -14.3498
294 1 Zr 0.624902 0.5 0.375098 15.3679 -14.3498
295 1 Zr 0.5 0.624902 0.375098 15.3679 -14.3498
296 1 Zr 0.375098 0.375098 0.5 15.3679 -14.3498
297 1 Zr 0.624902 0.375098 0.5 15.3679 -14.3498
298 1 Zr 0.5 0.375098 0.624902 15.3679 -14.3498
299 1 Zr 0.375098 0.624902 0.5 15.3679 -14.3498
300 1 Zr 0.375098 0.5 0.624902 15.3679 -14.3498
301 1 Zr 0.5 0.5 0.5 15.4344 -14.3397
302 1 Zr 0.624902 0.624902 0.5 15.3679 -14.3498
303 1 Zr 0.624902 0.5 0.624902 15.3679 -14.3498
304 1 Zr 0.5 0.624902 0.624902 15.3679 -14.3498
305 2 N 0.374828 0.374828 0.374828 15.3419 -6.05325
306 2 N 0.625172 0.374828 0.374828 15.3419 -6.05325
307 2 N 0.5 0.37509 0.5 5.14431 -6.08081
308 2 N 0.374828 0.625172 0.374828 15.3419 -6.05325
309 2 N 0.37509 0.5 0.5 5.14431 -6.08081
310 2 N 0.5 0.5 0.37509 5.14431 -6.08081
311 2 N 0.625172 0.625172 0.374828 15.3419 -6.05325
312 2 N 0.62491 0.5 0.5 5.14431 -6.08081
313 2 N 0.5 0.62491 0.5 5.14431 -6.08081
314 2 N 0.374828 0.374828 0.625172 15.3419 -6.05325
315 2 N 0.625172 0.374828 0.625172 15.3419 -6.05325
316 2 N 0.374828 0.625172 0.625172 15.3419 -6.05325
317 2 N 0.5 0.5 0.62491 5.14431 -6.08081
318 2 N 0.625172 0.625172 0.625172 15.3419 -6.05325
319 1 Zr 0.7504 0.375019 0.375019 10.1551 -14.3503
320 1 Zr 0.874915 0.5 0.375176 15.2701 -14.3492
321 1 Zr 0.7504 0.624981 0.375019 10.1551 -14.3503
322 1 Zr 0.874915 0.375176 0.5 15.2701 -14.3492
323 1 Zr 0.7504 0.375019 0.624981 10.1551 -14.3503
324 1 Zr 0.74982 0.5 0.5 5.13845 -14.3394
325 1 Zr 0.874915 0.624824 0.5 15.2701 -14.3492
326 1 Zr 0.874915 0.5 0.624824 15.2701 -14.3492
327 1 Zr 0.7504 0.624981 0.624981 10.1551 -14.3503
328 2 N 0.875325 0.37484 0.37484 10.1896 -6.06928
329 2 N 0.749888 0.375104 0.5 10.2205 -6.07516
330 2 N 0.749888 0.5 0.375104 10.2205 -6.07516
331 2 N 0.875325 0.62516 0.37484 10.1896 -6.06928
332 2 N 0.87477 0.5 0.5 5.12912 -6.08007
333 2 N 0.749888 0.624896 0.5 10.2205 -6.07516
334 2 N 0.875325 0.37484 0.62516 10.1896 -6.06928
335 2 N 0.749888 0.5 0.624896 10.2205 -6.07516
336 2 N 0.875325 0.62516 0.62516 10.1896 -6.06928
337 1 Zr 0.125048 0.750284 0.37479 15.0704 -14.3504
338 1 Zr 5.66173e-14 0.875425 0.372926 13.6839 -14.3546
339 1 Zr 0.249716 0.874952 0.37479 15.0704 -14.3504
340 1 Zr 1.01972e-13 0.749319 0.5 15.023 -14.3362
341 1 Zr 0.12502 0.87498 0.5 10.1945 -14.3449
342 1 Zr 0.125048 0.750284 0.62521 15.0704 -14.3504
343 1 Zr 6.55559e-14 0.875425 0.627074 13.6839 -14.3546
344 1 Zr 0.250188 0.749812 0.5 15.372 -14.3392
345 1 Zr 0.249716 0.874952 0.62521 15.0704 -14.3504
346 2 N -3.9705e-14 0.75049 0.375465 9.94869 -6.09316
347 2 N 0.124638 0.875362 0.375453 9.97976 -6.09971
348 2 N 0.125269 0.749645 0.5 10.1183 -6.06002
349 2 N -4.17171e-14 0.874349 0.5 4.9794 -5.99818
350 2 N 0.250003 0.749997 0.375122 10.2125 -6.07756
351 2 N 0.250355 0.874731 0.5 10.1183 -6.06002
352 2 N -5.13346e-14 0.75049 0.624535 9.94869 -6.09316
353 2 N 0.124638 0.875362 0.624547 9.97976 -6.09971
354 2 N 0.250003 0.749997 0.624878 10.2125 -6.07756
355 1 Zr 0.375019 0.7504 0.375019 10.1551 -14.3503
356 1 Zr 0.624981 0.7504 0.375019 10.1551 -14.3503
357 1 Zr 0.5 0.874915 0.375176 15.2701 -14.3492
358 1 Zr 0.375176 0.874915 0.5 15.2701 -14.3492
359 1 Zr 0.375019 0.7504 0.624981 10.1551 -14.3503
360 1 Zr 0.5 0.74982 0.5 5.13845 -14.3394
361 1 Zr 0.624824 0.874915 0.5 15.2701 -14.3492
362 1 Zr 0.624981 0.7504 0.624981 10.1551 -14.3503
363 1 Zr 0.5 0.874915 0.624824 15.2701 -14.3492
364 2 N 0.37484 0.875325 0.37484 10.1896 -6.06928
365 2 N 0.375104 0.749888 0.5 10.2205 -6.07516
366 2 N 0.5 0.749888 0.375104 10.2205 -6.07516
367 2 N 0.62516 0.875325 0.37484 10.1896 -6.06928
368 2 N 0.624896 0.749888 0.5 10.2205 -6.07516
369 2 N 0.5 0.87477 0.5 5.12912 -6.08007
370 2 N 0.37484 0.875325 0.62516 10.1896 -6.06928
371 2 N 0.5 0.749888 0.624896 10.2205 -6.07516
372 2 N 0.62516 0.875325 0.62516 10.1896 -6.06928
373 1 Zr 0.874952 0.750284 0.37479 15.0704 -14.3504
374 1 Zr 0.750284 0.874952 0.37479 15.0704 -14.3504
375 1 Zr 0.749812 0.749812 0.5 15.372 -14.3392
376 1 Zr 0.87498 0.87498 0.5 10.1945 -14.3449
377 1 Zr 0.874952 0.750284 0.62521 15.0704 -14.3504
378 1 Zr 0.750284 0.874952 0.62521 15.0704 -14.3504
379 2 N 0.749997 0.749997 0.375122 10.2125 -6.07756
380 2 N 0.875362 0.875362 0.375453 9.97976 -6.09971
381 2 N 0.874731 0.749645 0.5 10.1183 -6.06002
382 2 N 0.749645 0.874731 0.5 10.1183 -6.06002
383 2 N 0.749997 0.749997 0.624878 10.2125 -6.07756
384 2 N 0.875362 0.875362 0.624547 9.97976 -6.09971
385 1 Zr 6.85486e-14 2.4735e-14 0.745367 12.5314 -14.327
386 1 Zr 0.124369 0.124369 0.748732 14.3945 -14.3454
387 1 Zr 0.119179 3.30678e-14 0.880821 8.18931 -14.3407
388 1 Zr 3.07678e-14 0.119179 0.880821 8.18931 -14.3407
389 1 Zr 0.251511 1.96869e-14 0.748489 14.2275 -14.3379
390 1 Zr 0.251268 0.124369 0.875631 14.3945 -14.3454
391 1 Zr 4.03334e-14 0.251511 0.748489 14.2275 -14.3379
392 1 Zr 0.124369 0.251268 0.875631 14.3945 -14.3454
393 1 Zr 0.250311 0.250311 0.749689 15.2561 -14.3397
394 2 N 0.126154 -9.9074e-15 0.751586 13.4431 -6.00777
395 2 N -1.94818e-14 0.126154 0.751586 13.4431 -6.00777
396 2 N 0.250059 0.125304 0.749941 10.0336 -6.0537
397 2 N 0.125304 0.250059 0.749941 10.0336 -6.0537
398 2 N -1.07275e-14 -7.34021e-15 0.867441 10.9693 -6.09516
399 2 N 0.125841 0.125841 0.874159 0.152566 -5.99542
400 2 N 0.248414 -2.66708e-14 0.873846 13.4431 -6.00777
401 2 N -1.96737e-14 0.248414 0.873846 13.4431 -6.00777
402 2 N 0.250059 0.250059 0.874696 10.0336 -6.0537
403 1 Zr 0.37479 0.125048 0.750284 15.0704 -14.3504
404 1 Zr 0.372926 1.87408e-14 0.875425 13.6839 -14.3546
405 1 Zr 0.5 1.21153e-14 0.749319 15.023 -14.3362
406 1 Zr 0.62521 0.125048 0.750284 15.0704 -14.3504
407 1 Zr 0.627074 3.05191e-14 0.875425 13.6839 -14.3546
408 1 Zr 0.5 0.12502 0.87498 10.1945 -14.3449
409 1 Zr 0.37479 0.249716 0.874952 15.0704 -14.3504
410 1 Zr 0.5 0.250188 0.749812 15.372 -14.3392
411 1 Zr 0.62521 0.249716 0.874952 15.0704 -14.3504
412 2 N 0.375465 -2.1945e-15 0.75049 9.94869 -6.09316
413 2 N 0.624535 -9.02459e-15 0.75049 9.94869 -6.09316
414 2 N 0.5 0.125269 0.749645 10.1183 -6.06002
415 2 N 0.375122 0.250003 0.749997 10.2125 -6.07756
416 2 N 0.624878 0.250003 0.749997 10.2125 -6.07756
417 2 N 0.375453 0.124638 0.875362 9.97976 -6.09971
418 2 N 0.5 -1.41602e-14 0.874349 4.9794 -5.99818
419 2 N 0.624547 0.124638 0.875362 9.97976 -6.09971
420 2 N 0.5 0.250355 0.874731 10.1183 -6.06002
421 1 Zr 0.748489 3.63781e-14 0.748489 14.2275 -14.3379
422 1 Zr 0.875631 0.124369 0.748732 14.3945 -14.3454
423 1 Zr 0.880821 4.06493e-14 0.880821 8.18931 -14.3407
424 1 Zr 0.748732 0.124369 0.875631 14.3945 -14.3454
425 1 Zr 0.749689 0.250311 0.749689 15.2561 -14.3397
426 1 Zr 0.875631 0.251268 0.875631 14.3945 -14.3454
427 2 N 0.873846 -1.90788e-14 0.751586 13.4431 -6.00777
428 2 N 0.749941 0.125304 0.749941 10.0336 -6.0537
429 2 N 0.874696 0.250059 0.749941 10.0336 -6.0537
430 2 N 0.751586 -3.42459e-14 0.873846 13.4431 -6.00777
431 2 N 0.874159 0.125841 0.874159 0.152566 -5.99542
432 2 N 0.749941 0.250059 0.874696 10.0336 -6.0537
433 1 Zr 0.125048 0.37479 0.750284 15.0704 -14.3504
434 1 Zr 2.84563e-14 0.372926 0.875425 13.6839 -14.3546
435 1 Zr 0.249716 0.37479 0.874952 15.0704 -14.3504
436 1 Zr 7.85334e-14 0.5 0.749319 15.023 -14.3362
437 1 Zr 0.125048 0.62521 0.750284 15.0704 -14.3504
438 1 Zr 0.12502 0.5 0.87498 10.1945 -14.3449
439 1 Zr 6.7906e-14 0.627074 0.875425 13.6839 -14.3546
440 1 Zr 0.250188 0.5 0.749812 15.372 -14.3392
441 1 Zr 0.249716 0.62521 0.874952 15.0704 -14.3504
442 2 N -2.06022e-14 0.375465 0.75049 9.94869 -6.09316
443 2 N 0.250003 0.375122 0.749997 10.2125 -6.07756
444 2 N 0.125269 0.5 0.749645 10.1183 -6.06002
445 2 N -4.83544e-14 0.624535 0.75049 9.94869 -6.09316
446 2 N 0.250003 0.624878 0.749997 10.2125 -6.07756
447 2 N 0.124638 0.375453 0.875362 9.97976 -6.09971
448 2 N -3.2282e-14 0.5 0.874349 4.9794 -5.99818
449 2 N 0.124638 0.624547 0.875362 9.97976 -6.09971
450 2 N 0.250355 0.5 0.874731 10.1183 -6.06002
451 1 Zr 0.375019 0.375019 0.7504 10.1551 -14.3503
452 1 Zr 0.624981 0.375019 0.7504 10.1551 -14.3503
453 1 Zr 0.5 0.375176 0.874915 15.2701 -14.3492
454 1 Zr 0.375019 0.624981 0.7504 10.1551 -14.3503
455 1 Zr 0.375176 0.5 0.874915 15.2701 -14.3492
456 1 Zr 0.5 0.5 0.74982 5.13845 -14.3394
457 1 Zr 0.624981 0.624981 0.7504 10.1551 -14.3503
458 1 Zr 0.624824 0.5 0.874915 15.2701 -14.3492
459 1 Zr 0.5 0.624824 0.874915 15.2701 -14.3492
460 2 N 0.5 0.375104 0.749888 10.2205 -6.07516
461 2 N 0.375104 0.5 0.749888 10.2205 -6.07516
462 2 N 0.624896 0.5 0.749888 10.2205 -6.07516
463 2 N 0.5 0.624896 0.749888 10.2205 -6.07516
464 2 N 0.37484 0.37484 0.875325 10.1896 -6.06928
465 2 N 0.62516 0.37484 0.875325 10.1896 -6.06928
466 2 N 0.37484 0.62516 0.875325 10.1896 -6.06928
467 2 N 0.5 0.5 0.87477 5.12912 -6.08007
468 2 N 0.62516 0.62516 0.875325 10.1896 -6.06928
469 1 Zr 0.874952 0.37479 0.750284 15.0704 -14.3504
470 1 Zr 0.750284 0.37479 0.874952 15.0704 -14.3504
471 1 Zr 0.749812 0.5 0.749812 15.372 -14.3392
472 1 Zr 0.874952 0.62521 0.750284 15.0704 -14.3504
473 1 Zr 0.87498 0.5 0.87498 10.1945 -14.3449
474 1 Zr 0.750284 0.62521 0.874952 15.0704 -14.3504
475 2 N 0.749997 0.375122 0.749997 10.2125 -6.07756
476 2 N 0.874731 0.5 0.749645 10.1183 -6.06002
477 2 N 0.749997 0.624878 0.749997 10.2125 -6.07756
478 2 N 0.875362 0.375453 0.875362 9.97976 -6.09971
479 2 N 0.749645 0.5 0.874731 10.1183 -6.06002
480 2 N 0.875362 0.624547 0.875362 9.97976 -6.09971
481 1 Zr 1.21182e-13 0.748489 0.748489 14.2275 -14.3379
482 1 Zr 0.124369 0.875631 0.748732 14.3945 -14.3454
483 1 Zr 0.124369 0.748732 0.875631 14.3945 -14.3454
484 1 Zr 6.60789e-14 0.880821 0.880821 8.18931 -14.3407
485 1 Zr 0.250311 0.749689 0.749689 15.2561 -14.3397
486 1 Zr 0.251268 0.875631 0.875631 14.3945 -14.3454
487 2 N 0.125304 0.749941 0.749941 10.0336 -6.0537
488 2 N -5.06696e-14 0.873846 0.751586 13.4431 -6.00777
489 2 N 0.250059 0.874696 0.749941 10.0336 -6.0537
490 2 N -5.55314e-14 0.751586 0.873846 13.4431 -6.00777
491 2 N 0.125841 0.874159 0.874159 0.152566 -5.99542
492 2 N 0.250059 0.749941 0.874696 10.0336 -6.0537
493 1 Zr 0.37479 0.874952 0.750284 15.0704 -14.3504
494 1 Zr 0.37479 0.750284 0.874952 15.0704 -14.3504
495 1 Zr 0.5 0.749812 0.749812 15.372 -14.3392
496 1 Zr 0.62521 0.874952 0.750284 15.0704 -14.3504
497 1 Zr 0.62521 0.750284 0.874952 15.0704 -14.3504
498 1 Zr 0.5 0.87498 0.87498 10.1945 -14.3449
499 2 N 0.375122 0.749997 0.749997 10.2125 -6.07756
500 2 N 0.624878 0.749997 0.749997 10.2125 -6.07756
501 2 N 0.5 0.874731 0.749645 10.1183 -6.06002
502 2 N 0.375453 0.875362 0.875362 9.97976 -6.09971
503 2 N 0.5 0.749645 0.874731 10.1183 -6.06002
504 2 N 0.624547 0.875362 0.875362 9.97976 -6.09971
1 2 N 0.874159 0.874159 0.874159 0.152566 -5.99542
505 1 Zr 0.749689 0.749689 0.749689 15.2561 -14.3397
506 1 Zr 0.875631 0.875631 0.748732 14.3945 -14.3454
507 1 Zr 0.875631 0.748732 0.875631 14.3945 -14.3454
508 1 Zr 0.748732 0.875631 0.875631 14.3945 -14.3454
509 2 N 0.874696 0.749941 0.749941 10.0336 -6.0537
510 2 N 0.749941 0.874696 0.749941 10.0336 -6.0537
511 2 N 0.749941 0.749941 0.874696 10.0336 -6.0537
