ITEM: TIMESTEP
3
ITEM: NUMBER OF ATOMS
64
ITEM: BOX BOUNDS pp pp pp
0.0000000000000000e+00 9.0800000000000001e+00
0.0000000000000000e+00 9.0800000000000001e+00
0.0000000000000000e+00 9.0800000000000001e+00
ITEM: ATOMS id element type xs ys zs c_csym c_eng
1 Zr 1 1.73334e-17 6.18466e-18 -5.39266e-17 10.3058 -12.5713
2 Zr 1 0.25 0.25 5.02993e-17 5.1529 -12.5713
3 Zr 1 0.25 1.79196e-17 0.25 10.3058 -12.5713
4 Zr 1 1.48802e-17 0.25 0.25 10.3058 -12.5713
5 Zr 1 0.5 -2.84883e-17 -2.9529e-17 15.4587 -12.5713
6 Zr 1 0.75 0.25 6.35373e-17 10.3058 -12.5713
7 Zr 1 0.75 1.81296e-17 0.25 10.3058 -12.5713
8 Zr 1 0.5 0.25 0.25 10.3058 -12.5713
9 Zr 1 -2.84627e-18 0.5 2.48475e-17 15.4587 -12.5713
10 Zr 1 0.25 0.75 3.13856e-17 15.4587 -12.5713
11 Zr 1 0.25 0.5 0.25 15.4587 -12.5713
12 Zr 1 1.69088e-17 0.75 0.25 10.3058 -12.5713
13 Zr 1 0.5 0.5 1.07832e-16 15.4587 -12.5713
14 Zr 1 0.75 0.75 1.55961e-17 10.3058 -12.5713
15 Zr 1 0.75 0.5 0.25 10.3058 -12.5713
16 Zr 1 0.5 0.75 0.25 10.3058 -12.5713
17 Zr 1 -3.05912e-17 -5.19293e-17 0.5 10.3058 -12.5713
18 Zr 1 0.25 0.25 0.5 10.3058 -12.5713
19 Zr 1 0.25 2.7165e-17 0.75 10.3058 -12.5713
20 Zr 1 1.36398e-17 0.25 0.75 10.3058 -12.5713
21 Zr 1 0.5 1.17833e-17 0.5 10.3058 -12.5713
22 Zr 1 0.75 0.25 0.5 10.3058 -12.5713
23 Zr 1 0.75 -3.22512e-17 0.75 10.3058 -12.5713
24 Zr 1 0.5 0.25 0.75 10.3058 -12.5713
25 Zr 1 3.35515e-18 0.5 0.5 10.3058 -12.5713
26 Zr 1 0.25 0.75 0.5 10.3058 -12.5713
27 Zr 1 0.25 0.5 0.75 10.3058 -12.5713
28 Zr 1 -3.74571e-17 0.75 0.75 10.3058 -12.5713
29 Zr 1 0.5 0.5 0.5 10.3058 -12.5713
30 Zr 1 0.75 0.75 0.5 10.3058 -12.5713
31 Zr 1 0.75 0.5 0.75 10.3058 -12.5713
32 Zr 1 0.5 0.75 0.75 10.3058 -12.5713
33 N 2 0.25 2.74247e-17 4.03454e-17 15.4587 -7.84865
34 N 2 2.53491e-17 0.25 3.10352e-17 15.4587 -7.84865
35 N 2 0.75 1.02545e-17 5.06619e-17 10.3058 -7.84865
36 N 2 0.5 0.25 2.95608e-17 10.3058 -7.84865
37 N 2 0.25 0.5 1.67262e-17 10.3058 -7.84865
38 N 2 9.03385e-18 0.75 1.20899e-17 5.1529 -7.84865
39 N 2 0.75 0.5 1.48727e-17 10.3058 -7.84865
40 N 2 0.5 0.75 7.46728e-18 10.3058 -7.84865
41 N 2 1.84423e-17 3.03025e-17 0.25 10.3058 -7.84865
42 N 2 0.25 0.25 0.25 10.3058 -7.84865
43 N 2 0.25 2.00647e-17 0.5 10.3058 -7.84865
44 N 2 3.47242e-17 0.25 0.5 10.3058 -7.84865
45 N 2 0.5 3.25792e-17 0.25 10.3058 -7.84865
46 N 2 0.75 0.25 0.25 15.4587 -7.84865
47 N 2 0.75 5.93089e-17 0.5 10.3058 -7.84865
48 N 2 0.5 0.25 0.5 15.4587 -7.84865
49 N 2 3.05217e-17 0.5 0.25 5.1529 -7.84865
50 N 2 0.25 0.75 0.25 10.3058 -7.84865
51 N 2 0.25 0.5 0.5 10.3058 -7.84865
52 N 2 7.25756e-17 0.75 0.5 10.3058 -7.84865
53 N 2 0.5 0.5 0.25 10.3058 -7.84865
54 N 2 0.75 0.75 0.25 10.3058 -7.84865
55 N 2 0.75 0.5 0.5 10.3058 -7.84865
56 N 2 0.5 0.75 0.5 5.1529 -7.84865
57 N 2 5.31545e-17 4.65891e-17 0.75 15.4587 -7.84865
58 N 2 0.25 0.25 0.75 15.4587 -7.84865
59 N 2 0.5 5.21273e-17 0.75 10.3058 -7.84865
60 N 2 0.75 0.25 0.75 15.4587 -7.84865
61 N 2 5.28947e-17 0.5 0.75 10.3058 -7.84865
62 N 2 0.25 0.75 0.75 10.3058 -7.84865
63 N 2 0.5 0.5 0.75 10.3058 -7.84865
64 N 2 0.75 0.75 0.75 15.4587 -7.84865
