ITEM: TIMESTEP
20
ITEM: NUMBER OF ATOMS
63
ITEM: BOX BOUNDS pp pp pp
0.0000000000000000e+00 9.0800000000000001e+00
0.0000000000000000e+00 9.0800000000000001e+00
0.0000000000000000e+00 9.0800000000000001e+00
ITEM: ATOMS id type element xs ys zs c_csym c_eng
1 2 N 0.751364 0.751364 0.751364 15.3992 -7.69948
2 1 Zr 0.229111 0.229111 5.12509e-11 7.29129 -13.3477
3 1 Zr 0.229111 5.33141e-11 0.229111 7.29129 -13.3477
4 1 Zr -1.8782e-11 0.229111 0.229111 7.29129 -13.3477
5 1 Zr 0.5 -2.21679e-11 5.21114e-11 4.57495 -12.3531
6 1 Zr 0.770889 0.229111 -5.30813e-12 7.29129 -13.3477
7 1 Zr 0.770889 3.77251e-11 0.229111 7.29129 -13.3477
8 1 Zr 0.5 0.251845 0.251845 14.8698 -12.9684
9 1 Zr -2.812e-11 0.5 -2.97402e-11 4.57495 -12.3531
10 1 Zr 0.229111 0.770889 2.76577e-11 7.29129 -13.3477
11 1 Zr 0.251845 0.5 0.251845 14.8698 -12.9684
12 1 Zr -2.30671e-11 0.770889 0.229111 7.29129 -13.3477
13 1 Zr 0.5 0.5 1.27001e-11 5.07798 -13.1724
14 1 Zr 0.770889 0.770889 -1.50853e-12 7.29129 -13.3477
15 1 Zr 0.748155 0.5 0.251845 14.8698 -12.9684
16 1 Zr 0.5 0.748155 0.251845 14.8698 -12.9684
17 1 Zr -2.57284e-11 1.56137e-11 0.5 4.57495 -12.3531
18 1 Zr 0.251845 0.251845 0.5 14.8698 -12.9684
19 1 Zr 0.229111 7.4761e-12 0.770889 7.29129 -13.3477
20 1 Zr -8.03209e-11 0.229111 0.770889 7.29129 -13.3477
21 1 Zr 0.5 2.03155e-12 0.5 5.07798 -13.1724
22 1 Zr 0.748155 0.251845 0.5 14.8698 -12.9684
23 1 Zr 0.770889 1.92894e-11 0.770889 7.29129 -13.3477
24 1 Zr 0.5 0.251845 0.748155 14.8698 -12.9684
25 1 Zr -5.58804e-11 0.5 0.5 5.07798 -13.1724
26 1 Zr 0.251845 0.748155 0.5 14.8698 -12.9684
27 1 Zr 0.251845 0.5 0.748155 14.8698 -12.9684
28 1 Zr -5.72017e-11 0.770889 0.770889 7.29129 -13.3477
29 1 Zr 0.5 0.5 0.5 15.2339 -12.2807
30 1 Zr 0.748155 0.748155 0.5 14.8698 -12.9684
31 1 Zr 0.748155 0.5 0.748155 14.8698 -12.9684
32 1 Zr 0.5 0.748155 0.748155 14.8698 -12.9684
33 2 N 0.283866 -3.28104e-11 -7.49673e-12 9.03994 -10.2169
34 2 N 2.67371e-11 0.283866 -3.8716e-11 9.03994 -10.2169
35 2 N 0.716134 -3.13723e-11 3.49193e-11 9.03994 -10.2169
36 2 N 0.5 0.258363 -9.34048e-11 4.26213 -6.62687
37 2 N 0.258363 0.5 3.60026e-11 4.26213 -6.62687
38 2 N 1.79872e-11 0.716134 -2.78464e-11 9.03994 -10.2169
39 2 N 0.741637 0.5 9.35516e-11 4.26213 -6.62687
40 2 N 0.5 0.741637 -8.12192e-11 4.26213 -6.62687
41 2 N 2.9243e-13 -2.01648e-11 0.283866 9.03994 -10.2169
42 2 N 0.248636 0.248636 0.248636 15.3992 -7.69948
43 2 N 0.258363 -5.05135e-11 0.5 4.26213 -6.62687
44 2 N 5.59377e-11 0.258363 0.5 4.26213 -6.62687
45 2 N 0.5 4.94846e-12 0.258363 4.26213 -6.62687
46 2 N 0.751364 0.248636 0.248636 15.3992 -7.69948
47 2 N 0.741637 -4.81675e-11 0.5 4.26213 -6.62687
48 2 N 0.5 0.255057 0.5 4.85239 -7.98846
49 2 N 2.07527e-11 0.5 0.258363 4.26213 -6.62687
50 2 N 0.248636 0.751364 0.248636 15.3992 -7.69948
51 2 N 0.255057 0.5 0.5 4.85239 -7.98846
52 2 N 4.28157e-11 0.741637 0.5 4.26213 -6.62687
53 2 N 0.5 0.5 0.255057 4.85239 -7.98846
54 2 N 0.751364 0.751364 0.248636 10.3431 -7.69948
55 2 N 0.744943 0.5 0.5 4.85239 -7.98846
56 2 N 0.5 0.744943 0.5 4.85239 -7.98846
57 2 N 4.70275e-11 1.05899e-11 0.716134 9.03994 -10.2169
58 2 N 0.248636 0.248636 0.751364 10.3431 -7.69948
59 2 N 0.5 4.91054e-11 0.741637 4.26213 -6.62687
60 2 N 0.751364 0.248636 0.751364 15.3992 -7.69948
61 2 N 8.67226e-11 0.5 0.741637 4.26213 -6.62687
62 2 N 0.248636 0.751364 0.751364 15.3992 -7.69948
63 2 N 0.5 0.5 0.744943 4.85239 -7.98846
