LAMMPS (23 Jun 2022)
Lattice spacing in x,y,z = 4.54 4.54 4.54
Created orthogonal box = (0 0 0) to (9.08 9.08 9.08)
  1 by 1 by 1 MPI processor grid
Lattice spacing in x,y,z = 4.54 4.54 4.54
Created 32 atoms
  using lattice units in orthogonal box = (0 0 0) to (9.08 9.08 9.08)
  create_atoms CPU = 0.000 seconds
Lattice spacing in x,y,z = 4.54 4.54 4.54
Created 32 atoms
  using lattice units in orthogonal box = (0 0 0) to (9.08 9.08 9.08)
  create_atoms CPU = 0.000 seconds
Reading MEAM library file library_HfN.meam with DATE: 2015-02-12
WARNING: Using 'neigh_modify every 1 delay 0 check yes' setting during minimization (src/min.cpp:187)
Neighbor list info ...
  update every 1 steps, delay 0 steps, check yes
  max neighbors/atom: 2000, page size: 100000
  master list distance cutoff = 9.38
  ghost atom cutoff = 9.38
  binsize = 4.69, bins = 2 2 2
  3 neighbor lists, perpetual/occasional/extra = 2 1 0
  (1) pair meam, perpetual
      attributes: full, newton on
      pair build: full/bin/atomonly
      stencil: full/bin/3d
      bin: standard
  (2) pair meam, perpetual, half/full from (1)
      attributes: half, newton on
      pair build: halffull/newton
      stencil: none
      bin: none
  (3) compute centro/atom, occasional, copy from (1)
      attributes: full, newton on
      pair build: copy
      stencil: none
      bin: none
Setting up cg style minimization ...
  Unit style    : metal
  Current step  : 0
Per MPI rank memory allocation (min/avg/max) = 12.28 | 12.28 | 12.28 Mbytes
   Step         PotEng           Lx             Ly             Lz           Press           Pxx            Pyy            Pzz          c_eatoms   
         0  -653.43829      9.08           9.08           9.08          -5534.3265     -5534.3265     -5534.3265     -5534.3265     -653.43829    
         3  -653.43829      9.08           9.08           9.08          -5534.3265     -5534.3265     -5534.3265     -5534.3265     -653.43829    
Loop time of 0.0236591 on 1 procs for 3 steps with 64 atoms

99.4% CPU use with 1 MPI tasks x no OpenMP threads

Minimization stats:
  Stopping criterion = energy tolerance
  Energy initial, next-to-last, final = 
     -653.438289739799  -653.438289739803  -653.438289739803
  Force two-norm initial, final = 6.0096963e-14 9.8255599e-14
  Force max component initial, final = 1.0214052e-14 2.7533531e-14
  Final line search alpha, max atom move = 1 2.7533531e-14
  Iterations, force evaluations = 3 6

MPI task timing breakdown:
Section |  min time  |  avg time  |  max time  |%varavg| %total
---------------------------------------------------------------
Pair    | 0.023186   | 0.023186   | 0.023186   |   0.0 | 98.00
Neigh   | 0          | 0          | 0          |   0.0 |  0.00
Comm    | 4.2166e-05 | 4.2166e-05 | 4.2166e-05 |   0.0 |  0.18
Output  | 0          | 0          | 0          |   0.0 |  0.00
Modify  | 0          | 0          | 0          |   0.0 |  0.00
Other   |            | 0.000431   |            |       |  1.82

Nlocal:             64 ave          64 max          64 min
Histogram: 1 0 0 0 0 0 0 0 0 0
Nghost:           2133 ave        2133 max        2133 min
Histogram: 1 0 0 0 0 0 0 0 0 0
Neighs:           9728 ave        9728 max        9728 min
Histogram: 1 0 0 0 0 0 0 0 0 0
FullNghs:        19456 ave       19456 max       19456 min
Histogram: 1 0 0 0 0 0 0 0 0 0

Total # of neighbors = 19456
Ave neighs/atom = 304
Neighbor list builds = 0
Dangerous builds = 0
WARNING: No fixes with time integration, atoms won't move (src/verlet.cpp:60)
Setting up Verlet run ...
  Unit style    : metal
  Current step  : 3
  Time step     : 0.001
Per MPI rank memory allocation (min/avg/max) = 11.16 | 11.16 | 11.16 Mbytes
   Step         PotEng           Lx             Ly             Lz           Press           Pxx            Pyy            Pzz          c_eatoms   
         3  -653.43829      9.08           9.08           9.08          -5534.3265     -5534.3265     -5534.3265     -5534.3265     -653.43829    
Loop time of 3.34e-07 on 1 procs for 0 steps with 64 atoms

299.4% CPU use with 1 MPI tasks x no OpenMP threads

MPI task timing breakdown:
Section |  min time  |  avg time  |  max time  |%varavg| %total
---------------------------------------------------------------
Pair    | 0          | 0          | 0          |   0.0 |  0.00
Neigh   | 0          | 0          | 0          |   0.0 |  0.00
Comm    | 0          | 0          | 0          |   0.0 |  0.00
Output  | 0          | 0          | 0          |   0.0 |  0.00
Modify  | 0          | 0          | 0          |   0.0 |  0.00
Other   |            | 3.34e-07   |            |       |100.00

Nlocal:             64 ave          64 max          64 min
Histogram: 1 0 0 0 0 0 0 0 0 0
Nghost:           2133 ave        2133 max        2133 min
Histogram: 1 0 0 0 0 0 0 0 0 0
Neighs:           9728 ave        9728 max        9728 min
Histogram: 1 0 0 0 0 0 0 0 0 0
FullNghs:        19456 ave       19456 max       19456 min
Histogram: 1 0 0 0 0 0 0 0 0 0

Total # of neighbors = 19456
Ave neighs/atom = 304
Neighbor list builds = 0
Dangerous builds = 0
Deleted 1 atoms, new total = 63
WARNING: Using 'neigh_modify every 1 delay 0 check yes' setting during minimization (src/min.cpp:187)
Setting up cg style minimization ...
  Unit style    : metal
  Current step  : 0
Per MPI rank memory allocation (min/avg/max) = 12.28 | 12.28 | 12.28 Mbytes
   Step         PotEng           Lx             Ly             Lz           Press           Pxx            Pyy            Pzz          c_eatoms   
         0  -641.92269      9.08           9.08           9.08          -30191.764     -30191.764     -30191.764     -30191.764     -641.92269    
        10  -655.00065      9.08           9.08           9.08          -12853.407     -12853.407     -12853.407     -12853.407     -655.00065    
        20  -655.00065      9.08           9.08           9.08          -12878.7       -12878.7       -12878.7       -12878.7       -655.00065    
Loop time of 0.0997218 on 1 procs for 20 steps with 63 atoms

99.7% CPU use with 1 MPI tasks x no OpenMP threads

Minimization stats:
  Stopping criterion = energy tolerance
  Energy initial, next-to-last, final = 
     -641.922686053898  -655.000654425772  -655.000654425772
  Force two-norm initial, final = 19.667679 3.6637566e-07
  Force max component initial, final = 6.5048494 1.1000984e-07
  Final line search alpha, max atom move = 1 1.1000984e-07
  Iterations, force evaluations = 20 37

MPI task timing breakdown:
Section |  min time  |  avg time  |  max time  |%varavg| %total
---------------------------------------------------------------
Pair    | 0.098967   | 0.098967   | 0.098967   |   0.0 | 99.24
Neigh   | 0          | 0          | 0          |   0.0 |  0.00
Comm    | 0.00018488 | 0.00018488 | 0.00018488 |   0.0 |  0.19
Output  | 1.5417e-05 | 1.5417e-05 | 1.5417e-05 |   0.0 |  0.02
Modify  | 0          | 0          | 0          |   0.0 |  0.00
Other   |            | 0.0005548  |            |       |  0.56

Nlocal:             63 ave          63 max          63 min
Histogram: 1 0 0 0 0 0 0 0 0 0
Nghost:           2070 ave        2070 max        2070 min
Histogram: 1 0 0 0 0 0 0 0 0 0
Neighs:           9427 ave        9427 max        9427 min
Histogram: 1 0 0 0 0 0 0 0 0 0
FullNghs:        18854 ave       18854 max       18854 min
Histogram: 1 0 0 0 0 0 0 0 0 0

Total # of neighbors = 18854
Ave neighs/atom = 299.26984
Neighbor list builds = 0
Dangerous builds = 0
All done
Total number of atoms = 64
Initial energy of atoms = -653.438289739807
Final energy of atoms = -655.000654425773
Vacancy formation energy = -11.7723379631504
Total wall time: 0:00:00
