LAMMPS (23 Jun 2022)
Lattice spacing in x,y,z = 4.54 4.54 4.54
Created orthogonal box = (0 0 0) to (4.54 4.54 4.54)
  1 by 1 by 1 MPI processor grid
Lattice spacing in x,y,z = 4.54 4.54 4.54
Created 4 atoms
  using lattice units in orthogonal box = (0 0 0) to (4.54 4.54 4.54)
  create_atoms CPU = 0.000 seconds
Lattice spacing in x,y,z = 4.54 4.54 4.54
Created 4 atoms
  using lattice units in orthogonal box = (0 0 0) to (4.54 4.54 4.54)
  create_atoms CPU = 0.000 seconds
Reading MEAM library file library_HfN.meam with DATE: 2015-02-12
WARNING: Using 'neigh_modify every 1 delay 0 check yes' setting during minimization (src/min.cpp:187)
Neighbor list info ...
  update every 1 steps, delay 0 steps, check yes
  max neighbors/atom: 2000, page size: 100000
  master list distance cutoff = 9.38
  ghost atom cutoff = 9.38
  binsize = 4.69, bins = 1 1 1
  3 neighbor lists, perpetual/occasional/extra = 2 1 0
  (1) pair meam, perpetual
      attributes: full, newton on
      pair build: full/bin/atomonly
      stencil: full/bin/3d
      bin: standard
  (2) pair meam, perpetual, half/full from (1)
      attributes: half, newton on
      pair build: halffull/newton
      stencil: none
      bin: none
  (3) compute centro/atom, occasional, copy from (1)
      attributes: full, newton on
      pair build: copy
      stencil: none
      bin: none
Setting up cg style minimization ...
  Unit style    : metal
  Current step  : 0
Per MPI rank memory allocation (min/avg/max) = 11.73 | 11.73 | 11.73 Mbytes
   Step         PotEng           Lx             Ly             Lz           Press           Pxx            Pyy            Pzz          c_eatoms   
         0  -81.679786      4.54           4.54           4.54          -5534.3627     -5534.3627     -5534.3627     -5534.3627     -81.679786    
         1  -81.679786      4.54           4.54           4.54          -5534.3627     -5534.3627     -5534.3627     -5534.3627     -81.679786    
Loop time of 0.00219675 on 1 procs for 1 steps with 8 atoms

91.2% CPU use with 1 MPI tasks x no OpenMP threads

Minimization stats:
  Stopping criterion = quadratic factors are zero
  Energy initial, next-to-last, final = 
     -81.6797862268255  -81.6797862268255  -81.6797862268255
  Force two-norm initial, final = 1.442222e-16 1.442222e-16
  Force max component initial, final = 4.1633363e-17 4.1633363e-17
  Final line search alpha, max atom move = 1 4.1633363e-17
  Iterations, force evaluations = 1 2

MPI task timing breakdown:
Section |  min time  |  avg time  |  max time  |%varavg| %total
---------------------------------------------------------------
Pair    | 0.001917   | 0.001917   | 0.001917   |   0.0 | 87.26
Neigh   | 0          | 0          | 0          |   0.0 |  0.00
Comm    | 2.35e-05   | 2.35e-05   | 2.35e-05   |   0.0 |  1.07
Output  | 0          | 0          | 0          |   0.0 |  0.00
Modify  | 0          | 0          | 0          |   0.0 |  0.00
Other   |            | 0.0002563  |            |       | 11.67

Nlocal:              8 ave           8 max           8 min
Histogram: 1 0 0 0 0 0 0 0 0 0
Nghost:           1323 ave        1323 max        1323 min
Histogram: 1 0 0 0 0 0 0 0 0 0
Neighs:           1216 ave        1216 max        1216 min
Histogram: 1 0 0 0 0 0 0 0 0 0
FullNghs:         2432 ave        2432 max        2432 min
Histogram: 1 0 0 0 0 0 0 0 0 0

Total # of neighbors = 2432
Ave neighs/atom = 304
Neighbor list builds = 0
Dangerous builds = 0
WARNING: No fixes with time integration, atoms won't move (src/verlet.cpp:60)
Setting up Verlet run ...
  Unit style    : metal
  Current step  : 1
  Time step     : 0.001
Per MPI rank memory allocation (min/avg/max) = 10.61 | 10.61 | 10.61 Mbytes
   Step         PotEng           Lx             Ly             Lz           Press           Pxx            Pyy            Pzz          c_eatoms   
         1  -81.679786      4.54           4.54           4.54          -5534.3627     -5534.3627     -5534.3627     -5534.3627     -81.679786    
Loop time of 1.2416e-05 on 1 procs for 0 steps with 8 atoms

96.6% CPU use with 1 MPI tasks x no OpenMP threads

MPI task timing breakdown:
Section |  min time  |  avg time  |  max time  |%varavg| %total
---------------------------------------------------------------
Pair    | 0          | 0          | 0          |   0.0 |  0.00
Neigh   | 0          | 0          | 0          |   0.0 |  0.00
Comm    | 0          | 0          | 0          |   0.0 |  0.00
Output  | 0          | 0          | 0          |   0.0 |  0.00
Modify  | 0          | 0          | 0          |   0.0 |  0.00
Other   |            | 1.242e-05  |            |       |100.00

Nlocal:              8 ave           8 max           8 min
Histogram: 1 0 0 0 0 0 0 0 0 0
Nghost:           1323 ave        1323 max        1323 min
Histogram: 1 0 0 0 0 0 0 0 0 0
Neighs:           1216 ave        1216 max        1216 min
Histogram: 1 0 0 0 0 0 0 0 0 0
FullNghs:         2432 ave        2432 max        2432 min
Histogram: 1 0 0 0 0 0 0 0 0 0

Total # of neighbors = 2432
Ave neighs/atom = 304
Neighbor list builds = 0
Dangerous builds = 0
Deleted 1 atoms, new total = 7
WARNING: Using 'neigh_modify every 1 delay 0 check yes' setting during minimization (src/min.cpp:187)
Setting up cg style minimization ...
  Unit style    : metal
  Current step  : 0
Per MPI rank memory allocation (min/avg/max) = 11.73 | 11.73 | 11.73 Mbytes
   Step         PotEng           Lx             Ly             Lz           Press           Pxx            Pyy            Pzz          c_eatoms   
         0  -64.707716      4.54           4.54           4.54          -20958.023     -20958.023     -20958.023     -20958.023     -64.707716    
         1  -64.707716      4.54           4.54           4.54          -20958.023     -20958.023     -20958.023     -20958.023     -64.707716    
Loop time of 0.00061 on 1 procs for 1 steps with 7 atoms

77.9% CPU use with 1 MPI tasks x no OpenMP threads

Minimization stats:
  Stopping criterion = search direction is not downhill
  Energy initial, next-to-last, final = 
     -64.7077156143885  -64.7077156143885  -64.7077156143885
  Force two-norm initial, final = 0 0
  Force max component initial, final = 0 0
  Final line search alpha, max atom move = 0 0
  Iterations, force evaluations = 1 0

MPI task timing breakdown:
Section |  min time  |  avg time  |  max time  |%varavg| %total
---------------------------------------------------------------
Pair    | 0.00040879 | 0.00040879 | 0.00040879 |   0.0 | 67.02
Neigh   | 0          | 0          | 0          |   0.0 |  0.00
Comm    | 5.333e-06  | 5.333e-06  | 5.333e-06  |   0.0 |  0.87
Output  | 0          | 0          | 0          |   0.0 |  0.00
Modify  | 0          | 0          | 0          |   0.0 |  0.00
Other   |            | 0.0001959  |            |       | 32.11

Nlocal:              7 ave           7 max           7 min
Histogram: 1 0 0 0 0 0 0 0 0 0
Nghost:           1108 ave        1108 max        1108 min
Histogram: 1 0 0 0 0 0 0 0 0 0
Neighs:            928 ave         928 max         928 min
Histogram: 1 0 0 0 0 0 0 0 0 0
FullNghs:         1856 ave        1856 max        1856 min
Histogram: 1 0 0 0 0 0 0 0 0 0

Total # of neighbors = 1856
Ave neighs/atom = 265.14286
Neighbor list builds = 0
Dangerous builds = 0
All done
Total number of atoms = 8
Initial energy of atoms = -81.6797862268254
Final energy of atoms = -64.7077156143884
Vacancy formation energy = 6.76209733408382
Total wall time: 0:00:00
