LAMMPS (23 Jun 2022)
Lattice spacing in x,y,z = 4.54 4.54 4.54
Created orthogonal box = (0 0 0) to (27.24 27.24 27.24)
  1 by 1 by 1 MPI processor grid
Lattice spacing in x,y,z = 4.54 4.54 4.54
Created 864 atoms
  using lattice units in orthogonal box = (0 0 0) to (27.24 27.24 27.24)
  create_atoms CPU = 0.000 seconds
Lattice spacing in x,y,z = 4.54 4.54 4.54
Created 864 atoms
  using lattice units in orthogonal box = (0 0 0) to (27.24 27.24 27.24)
  create_atoms CPU = 0.000 seconds
Reading MEAM library file library_HfN.meam with DATE: 2015-02-12
WARNING: Using 'neigh_modify every 1 delay 0 check yes' setting during minimization (src/min.cpp:187)
Neighbor list info ...
  update every 1 steps, delay 0 steps, check yes
  max neighbors/atom: 2000, page size: 100000
  master list distance cutoff = 9.38
  ghost atom cutoff = 9.38
  binsize = 4.69, bins = 6 6 6
  3 neighbor lists, perpetual/occasional/extra = 2 1 0
  (1) pair meam, perpetual
      attributes: full, newton on
      pair build: full/bin/atomonly
      stencil: full/bin/3d
      bin: standard
  (2) pair meam, perpetual, half/full from (1)
      attributes: half, newton on
      pair build: halffull/newton
      stencil: none
      bin: none
  (3) compute centro/atom, occasional, copy from (1)
      attributes: full, newton on
      pair build: copy
      stencil: none
      bin: none
Setting up cg style minimization ...
  Unit style    : metal
  Current step  : 0
Per MPI rank memory allocation (min/avg/max) = 24.25 | 24.25 | 24.25 Mbytes
   Step         PotEng           Lx             Ly             Lz           Press           Pxx            Pyy            Pzz          c_eatoms   
         0  -17642.834      27.24          27.24          27.24         -5534.3627     -5534.3627     -5534.3627     -5534.3627     -17642.834    
         1  -17642.834      27.24          27.24          27.24         -5534.3627     -5534.3627     -5534.3627     -5534.3627     -17642.834    
Loop time of 0.122327 on 1 procs for 1 steps with 1728 atoms

98.9% CPU use with 1 MPI tasks x no OpenMP threads

Minimization stats:
  Stopping criterion = energy tolerance
  Energy initial, next-to-last, final = 
     -17642.8338249964  -17642.8338249964  -17642.8338249964
  Force two-norm initial, final = 4.8220992e-13 4.5142325e-13
  Force max component initial, final = 2.0983538e-14 2.4320823e-14
  Final line search alpha, max atom move = 1 2.4320823e-14
  Iterations, force evaluations = 1 2

MPI task timing breakdown:
Section |  min time  |  avg time  |  max time  |%varavg| %total
---------------------------------------------------------------
Pair    | 0.11465    | 0.11465    | 0.11465    |   0.0 | 93.72
Neigh   | 0          | 0          | 0          |   0.0 |  0.00
Comm    | 6.1999e-05 | 6.1999e-05 | 6.1999e-05 |   0.0 |  0.05
Output  | 0          | 0          | 0          |   0.0 |  0.00
Modify  | 0          | 0          | 0          |   0.0 |  0.00
Other   |            | 0.007615   |            |       |  6.23

Nlocal:           1728 ave        1728 max        1728 min
Histogram: 1 0 0 0 0 0 0 0 0 0
Nghost:           7533 ave        7533 max        7533 min
Histogram: 1 0 0 0 0 0 0 0 0 0
Neighs:         262656 ave      262656 max      262656 min
Histogram: 1 0 0 0 0 0 0 0 0 0
FullNghs:       525312 ave      525312 max      525312 min
Histogram: 1 0 0 0 0 0 0 0 0 0

Total # of neighbors = 525312
Ave neighs/atom = 304
Neighbor list builds = 0
Dangerous builds = 0
WARNING: No fixes with time integration, atoms won't move (src/verlet.cpp:60)
Setting up Verlet run ...
  Unit style    : metal
  Current step  : 1
  Time step     : 0.001
Per MPI rank memory allocation (min/avg/max) = 23.13 | 23.13 | 23.13 Mbytes
   Step         PotEng           Lx             Ly             Lz           Press           Pxx            Pyy            Pzz          c_eatoms   
         1  -17642.834      27.24          27.24          27.24         -5534.3627     -5534.3627     -5534.3627     -5534.3627     -17642.834    
Loop time of 5e-07 on 1 procs for 0 steps with 1728 atoms

200.0% CPU use with 1 MPI tasks x no OpenMP threads

MPI task timing breakdown:
Section |  min time  |  avg time  |  max time  |%varavg| %total
---------------------------------------------------------------
Pair    | 0          | 0          | 0          |   0.0 |  0.00
Neigh   | 0          | 0          | 0          |   0.0 |  0.00
Comm    | 0          | 0          | 0          |   0.0 |  0.00
Output  | 0          | 0          | 0          |   0.0 |  0.00
Modify  | 0          | 0          | 0          |   0.0 |  0.00
Other   |            | 5e-07      |            |       |100.00

Nlocal:           1728 ave        1728 max        1728 min
Histogram: 1 0 0 0 0 0 0 0 0 0
Nghost:           7533 ave        7533 max        7533 min
Histogram: 1 0 0 0 0 0 0 0 0 0
Neighs:         262656 ave      262656 max      262656 min
Histogram: 1 0 0 0 0 0 0 0 0 0
FullNghs:       525312 ave      525312 max      525312 min
Histogram: 1 0 0 0 0 0 0 0 0 0

Total # of neighbors = 525312
Ave neighs/atom = 304
Neighbor list builds = 0
Dangerous builds = 0
Deleted 1 atoms, new total = 1727
WARNING: Using 'neigh_modify every 1 delay 0 check yes' setting during minimization (src/min.cpp:187)
Setting up cg style minimization ...
  Unit style    : metal
  Current step  : 0
Per MPI rank memory allocation (min/avg/max) = 24.25 | 24.25 | 24.25 Mbytes
   Step         PotEng           Lx             Ly             Lz           Press           Pxx            Pyy            Pzz          c_eatoms   
         0  -17626.106      27.24          27.24          27.24         -5652.2111     -5652.2111     -5652.2111     -5652.2111     -17626.106    
        10  -17626.195      27.24          27.24          27.24         -5280.0161     -5280.0161     -5280.0161     -5280.0161     -17626.195    
        20  -17626.631      27.24          27.24          27.24         -8684.1836     -8684.1836     -8684.1836     -8684.1836     -17626.631    
        30  -17629.359      27.24          27.24          27.24         -4700.6111     -4700.6111     -4700.6111     -4700.6111     -17629.359    
        40  -17629.502      27.24          27.24          27.24         -4476.9048     -4476.9048     -4476.9048     -4476.9048     -17629.502    
        50  -17629.669      27.24          27.24          27.24         -5274.0448     -5274.0448     -5274.0448     -5274.0448     -17629.669    
        60  -17629.715      27.24          27.24          27.24         -6245.8673     -6245.8673     -6245.8673     -6245.8673     -17629.715    
        70  -17636.468      27.24          27.24          27.24          353.15038      353.15038      353.15038      353.15038     -17636.468    
        80  -17639.245      27.24          27.24          27.24          4015.5971      4015.5971      4015.5971      4015.5971     -17639.245    
        90  -17641.044      27.24          27.24          27.24          7340.4552      7340.4552      7340.4552      7340.4552     -17641.044    
       100  -17641.313      27.24          27.24          27.24          8118.4185      8118.4185      8118.4184      8118.4185     -17641.313    
       110  -17641.469      27.24          27.24          27.24          7040.5817      7040.5818      7040.5816      7040.5817     -17641.469    
       120  -17647.436      27.24          27.24          27.24          10643.046      10643.046      10643.045      10643.046     -17647.436    
       130  -17653.264      27.24          27.24          27.24          22398.355      22398.355      22398.354      22398.355     -17653.264    
       140  -17654.796      27.24          27.24          27.24          23413.288      23413.289      23413.287      23413.289     -17654.796    
       150  -17655.987      27.24          27.24          27.24          24717.231      24717.233      24717.228      24717.233     -17655.987    
       160  -17656.66       27.24          27.24          27.24          25446.945      25446.955      25446.935      25446.946     -17656.66     
       170  -17657.745      27.24          27.24          27.24          27145.885      27145.859      27145.892      27145.903     -17657.745    
       180  -17660.326      27.24          27.24          27.24          31889.059      31888.909      31889.142      31889.127     -17660.326    
       190  -17661.439      27.24          27.24          27.24          31363.439      31363.645      31363.082      31363.588     -17661.439    
       200  -17665.433      27.24          27.24          27.24          39304.993      39303.798      39304.665      39306.514     -17665.433    
       210  -17675.352      27.24          27.24          27.24          57220.204      57217.86       57219.04       57223.711     -17675.352    
       220  -17681.063      27.24          27.24          27.24          66364.934      66356.092      66370.387      66368.323     -17681.063    
       230  -17685.801      27.24          27.24          27.24          74268.381      74241.106      74268.016      74296.023     -17685.801    
       240  -17692.941      27.24          27.24          27.24          90495.36       90567.097      90562.981      90356.003     -17692.941    
       250  -17729.388      27.24          27.24          27.24          142710.71      142677.15      142785         142669.98     -17729.388    
       260  -17782.496      27.24          27.24          27.24          161899.66      161677.35      162426.02      161595.62     -17782.496    
       270  -17830.894      27.24          27.24          27.24          174902.82      174392.65      176187.82      174127.97     -17830.894    
       280  -17879.898      27.24          27.24          27.24          189105.24      188305.69      189811.53      189198.51     -17879.898    
       290  -17906.08       27.24          27.24          27.24          195826.68      195138.05      195860.55      196481.45     -17906.08     
       300  -17940.733      27.24          27.24          27.24          202204.59      202924.74      200490.03      203198.99     -17940.733    
       310  -17979.447      27.24          27.24          27.24          205419.91      205728.03      203567.92      206963.78     -17979.447    
       320  -18005.443      27.24          27.24          27.24          209977.76      211863.78      209262.41      208807.1      -18005.443    
       330  -18020.426      27.24          27.24          27.24          215791.78      217917.45      215605.24      213852.65     -18020.426    
       340  -18039.505      27.24          27.24          27.24          222806.5       226704.35      222743.99      218971.15     -18039.505    
       350  -18055.791      27.24          27.24          27.24          229320.56      232957.42      228373.92      226630.35     -18055.791    
       360  -18074.878      27.24          27.24          27.24          236503.42      241185.8       235211.66      233112.8      -18074.878    
       370  -18093.78       27.24          27.24          27.24          242370.36      246261.45      241369.21      239480.4      -18093.78     
       380  -18111.265      27.24          27.24          27.24          248675         252195.72      249828.71      244000.56     -18111.265    
       390  -18126.508      27.24          27.24          27.24          255109.97      259577.85      257286.43      248465.65     -18126.508    
       400  -18142.287      27.24          27.24          27.24          264055.99      269228.5       266856.48      256082.99     -18142.287    
       410  -18156.061      27.24          27.24          27.24          268454.65      273989.44      271380.88      259993.64     -18156.061    
       420  -18166.365      27.24          27.24          27.24          271754.2       277029.03      275103.7       263129.87     -18166.365    
       430  -18171.393      27.24          27.24          27.24          273035.18      280869.53      276120.57      262115.44     -18171.393    
       440  -18177.73       27.24          27.24          27.24          275297.06      282506.03      278120.37      265264.76     -18177.73     
       450  -18184.488      27.24          27.24          27.24          277032.72      283289.86      279053.29      268755.03     -18184.488    
       460  -18190.043      27.24          27.24          27.24          279707.76      286241.49      281223.77      271658        -18190.043    
       470  -18194.462      27.24          27.24          27.24          281555.98      286603.97      284315.36      273748.61     -18194.462    
       480  -18204.575      27.24          27.24          27.24          285606.37      291951.74      286043.26      278824.11     -18204.575    
       490  -18214.964      27.24          27.24          27.24          289191.48      296827.03      288081.04      282666.36     -18214.964    
       500  -18225.444      27.24          27.24          27.24          291910.66      299780.82      289078.42      286872.73     -18225.444    
       510  -18233.296      27.24          27.24          27.24          293354.69      301463.87      290532.24      288067.97     -18233.296    
       520  -18236.235      27.24          27.24          27.24          294065.04      302840.13      291343.58      288011.42     -18236.235    
       530  -18239.723      27.24          27.24          27.24          295558.49      305312.7       292646.01      288716.76     -18239.723    
       540  -18245.972      27.24          27.24          27.24          296783.51      306933.8       293079.84      290336.89     -18245.972    
       550  -18249.866      27.24          27.24          27.24          297690.5       308763.77      294669.38      289638.36     -18249.866    
       560  -18261.189      27.24          27.24          27.24          303229.89      312549.31      300014.01      297126.35     -18261.189    
       570  -18263.965      27.24          27.24          27.24          303270.12      313224.99      299968.8       296616.57     -18263.965    
       580  -18268.393      27.24          27.24          27.24          303791.43      312448.25      300181.09      298744.96     -18268.393    
       590  -18272.807      27.24          27.24          27.24          305053.78      315198.01      300411.02      299552.3      -18272.807    
       600  -18276.42       27.24          27.24          27.24          305617.35      314945.35      300960.49      300946.19     -18276.42     
       610  -18279.995      27.24          27.24          27.24          307108.96      315777.4       302406.81      303142.66     -18279.995    
       620  -18282.601      27.24          27.24          27.24          307848.61      316606.29      303143.16      303796.38     -18282.601    
       630  -18287.156      27.24          27.24          27.24          309388.41      317940.94      304478.66      305745.61     -18287.156    
       640  -18290.58       27.24          27.24          27.24          310870.36      318965.19      304016.54      309629.33     -18290.58     
       650  -18295.534      27.24          27.24          27.24          312387.24      321344.26      306420.82      309396.63     -18295.534    
       660  -18297.754      27.24          27.24          27.24          312387.63      321157.62      306361.43      309643.83     -18297.754    
       670  -18304.64       27.24          27.24          27.24          316445.41      325457.23      309431.42      314447.57     -18304.64     
       680  -18310.331      27.24          27.24          27.24          318099.19      327676         310316.33      316305.24     -18310.331    
       690  -18316.352      27.24          27.24          27.24          319574.94      329971.39      311847.13      316906.29     -18316.352    
       700  -18317.754      27.24          27.24          27.24          319640.04      329687.34      311987.96      317244.82     -18317.754    
       710  -18320.503      27.24          27.24          27.24          321205.63      331381.64      313791.81      318443.43     -18320.503    
       720  -18323.208      27.24          27.24          27.24          322823.97      331326.57      315895.06      321250.29     -18323.208    
       730  -18324.93       27.24          27.24          27.24          323222.57      332016.99      316700.58      320950.14     -18324.93     
       740  -18325.946      27.24          27.24          27.24          323289.46      332079.62      318178.76      319610        -18325.946    
       750  -18329.201      27.24          27.24          27.24          324051.67      333099.49      319425.35      319630.17     -18329.201    
       760  -18332.369      27.24          27.24          27.24          324418.22      331662.99      319502.11      322089.57     -18332.369    
       770  -18334.186      27.24          27.24          27.24          324942.39      332728.78      320073.49      322024.91     -18334.186    
       780  -18334.733      27.24          27.24          27.24          325206.65      332633.87      320802.87      322183.22     -18334.733    
       790  -18335.944      27.24          27.24          27.24          326034.68      333574.44      320982.02      323547.59     -18335.944    
       800  -18338.252      27.24          27.24          27.24          326701.35      334539.81      321540.45      324023.8      -18338.252    
       810  -18339.89       27.24          27.24          27.24          327291.38      335405.9       322097.83      324370.4      -18339.89     
       820  -18341.354      27.24          27.24          27.24          327818.54      335025.91      322893.36      325536.36     -18341.354    
       830  -18343.297      27.24          27.24          27.24          329470.78      338452.65      324612.11      325347.59     -18343.297    
       840  -18346.213      27.24          27.24          27.24          330795.49      337985.88      327088.56      327312.02     -18346.213    
       850  -18352.64       27.24          27.24          27.24          333848.36      340591.25      330908.68      330045.15     -18352.64     
       860  -18354.384      27.24          27.24          27.24          333920.03      341491.85      330264.58      330003.65     -18354.384    
       870  -18355.599      27.24          27.24          27.24          333889.73      339761.75      330429.44      331477.99     -18355.599    
       880  -18359.495      27.24          27.24          27.24          335380.12      340503.61      333512.07      332124.68     -18359.495    
       890  -18361.282      27.24          27.24          27.24          335511.15      340480.24      334036.19      332017.04     -18361.282    
       900  -18361.57       27.24          27.24          27.24          335466.73      339561.98      334292.29      332545.92     -18361.57     
       903  -18361.57       27.24          27.24          27.24          335466.73      339561.98      334292.29      332545.92     -18361.57     
Loop time of 85.9822 on 1 procs for 903 steps with 1727 atoms

99.7% CPU use with 1 MPI tasks x no OpenMP threads

Minimization stats:
  Stopping criterion = energy tolerance
  Energy initial, next-to-last, final = 
     -17626.1063889964  -18361.5696048718  -18361.5696048718
  Force two-norm initial, final = 0.47752352 10.932872
  Force max component initial, final = 0.11453148 4.8334399
  Final line search alpha, max atom move = 0.0051722998 0.025
  Iterations, force evaluations = 903 2067

MPI task timing breakdown:
Section |  min time  |  avg time  |  max time  |%varavg| %total
---------------------------------------------------------------
Pair    | 85.702     | 85.702     | 85.702     |   0.0 | 99.67
Neigh   | 0.1622     | 0.1622     | 0.1622     |   0.0 |  0.19
Comm    | 0.039426   | 0.039426   | 0.039426   |   0.0 |  0.05
Output  | 0.023599   | 0.023599   | 0.023599   |   0.0 |  0.03
Modify  | 0          | 0          | 0          |   0.0 |  0.00
Other   |            | 0.05498    |            |       |  0.06

Nlocal:           1727 ave        1727 max        1727 min
Histogram: 1 0 0 0 0 0 0 0 0 0
Nghost:           7018 ave        7018 max        7018 min
Histogram: 1 0 0 0 0 0 0 0 0 0
Neighs:         252657 ave      252657 max      252657 min
Histogram: 1 0 0 0 0 0 0 0 0 0
FullNghs:       505314 ave      505314 max      505314 min
Histogram: 1 0 0 0 0 0 0 0 0 0

Total # of neighbors = 505314
Ave neighs/atom = 292.59641
Neighbor list builds = 12
Dangerous builds = 0
All done
Total number of atoms = 1728
Initial energy of atoms = -17642.8338249939
Final energy of atoms = -18361.5696048718
Vacancy formation energy = -728.945753156251
Total wall time: 0:01:26
