ITEM: TIMESTEP
0
ITEM: NUMBER OF ATOMS
512
ITEM: BOX BOUNDS pp pp pp
0.0000000000000000e+00 1.8160000000000000e+01
0.0000000000000000e+00 1.8160000000000000e+01
0.0000000000000000e+00 1.8160000000000000e+01
ITEM: ATOMS id element type xs ys zs c_csym c_eng
1 Zr 1 0 0 0 15.4587 -14.3481
2 Zr 1 0.125 0.125 0 10.3058 -14.3481
3 Zr 1 0.125 0 0.125 10.3058 -14.3481
4 Zr 1 0 0.125 0.125 10.3058 -14.3481
5 Zr 1 0.25 0 0 10.3058 -14.3481
8 Zr 1 0.25 0.125 0.125 5.1529 -14.3481
17 Zr 1 0 0.25 0 10.3058 -14.3481
19 Zr 1 0.125 0.25 0.125 10.3058 -14.3481
21 Zr 1 0.25 0.25 0 10.3058 -14.3481
65 Zr 1 0 0 0.25 5.1529 -14.3481
66 Zr 1 0.125 0.125 0.25 5.1529 -14.3481
69 Zr 1 0.25 0 0.25 15.4587 -14.3481
81 Zr 1 0 0.25 0.25 10.3058 -14.3481
85 Zr 1 0.25 0.25 0.25 15.4587 -14.3481
257 N 2 0.125 0 0 15.4587 -6.07189
258 N 2 0 0.125 0 15.4587 -6.07189
260 N 2 0.25 0.125 0 10.3058 -6.07189
265 N 2 0.125 0.25 0 10.3058 -6.07189
289 N 2 0 0 0.125 15.4587 -6.07189
290 N 2 0.125 0.125 0.125 5.1529 -6.07189
291 N 2 0.125 0 0.25 10.3058 -6.07189
292 N 2 0 0.125 0.25 5.1529 -6.07189
293 N 2 0.25 0 0.125 10.3058 -6.07189
296 N 2 0.25 0.125 0.25 10.3058 -6.07189
305 N 2 0 0.25 0.125 10.3058 -6.07189
307 N 2 0.125 0.25 0.25 10.3058 -6.07189
309 N 2 0.25 0.25 0.125 15.4587 -6.07189
6 Zr 1 0.375 0.125 0 15.4587 -14.3481
7 Zr 1 0.375 0 0.125 15.4587 -14.3481
9 Zr 1 0.5 0 0 10.3058 -14.3481
10 Zr 1 0.625 0.125 0 15.4587 -14.3481
11 Zr 1 0.625 0 0.125 15.4587 -14.3481
12 Zr 1 0.5 0.125 0.125 5.1529 -14.3481
23 Zr 1 0.375 0.25 0.125 10.3058 -14.3481
25 Zr 1 0.5 0.25 0 5.1529 -14.3481
27 Zr 1 0.625 0.25 0.125 15.4587 -14.3481
70 Zr 1 0.375 0.125 0.25 10.3058 -14.3481
73 Zr 1 0.5 0 0.25 10.3058 -14.3481
74 Zr 1 0.625 0.125 0.25 10.3058 -14.3481
89 Zr 1 0.5 0.25 0.25 15.4587 -14.3481
259 N 2 0.375 0 0 15.4587 -6.07189
261 N 2 0.625 0 0 15.4587 -6.07189
262 N 2 0.5 0.125 0 5.91646e-31 -6.07189
267 N 2 0.375 0.25 0 10.3058 -6.07189
269 N 2 0.625 0.25 0 10.3058 -6.07189
294 N 2 0.375 0.125 0.125 15.4587 -6.07189
295 N 2 0.375 0 0.25 15.4587 -6.07189
297 N 2 0.5 0 0.125 10.3058 -6.07189
298 N 2 0.625 0.125 0.125 10.3058 -6.07189
299 N 2 0.625 0 0.25 10.3058 -6.07189
300 N 2 0.5 0.125 0.25 5.1529 -6.07189
311 N 2 0.375 0.25 0.25 10.3058 -6.07189
313 N 2 0.5 0.25 0.125 5.1529 -6.07189
315 N 2 0.625 0.25 0.25 10.3058 -6.07189
13 Zr 1 0.75 0 0 10.3058 -14.3481
14 Zr 1 0.875 0.125 0 10.3058 -14.3481
15 Zr 1 0.875 0 0.125 10.3058 -14.3481
16 Zr 1 0.75 0.125 0.125 15.4587 -14.3481
29 Zr 1 0.75 0.25 0 10.3058 -14.3481
31 Zr 1 0.875 0.25 0.125 5.1529 -14.3481
77 Zr 1 0.75 0 0.25 10.3058 -14.3481
78 Zr 1 0.875 0.125 0.25 5.1529 -14.3481
93 Zr 1 0.75 0.25 0.25 10.3058 -14.3481
263 N 2 0.875 0 0 10.3058 -6.07189
264 N 2 0.75 0.125 0 15.4587 -6.07189
271 N 2 0.875 0.25 0 5.1529 -6.07189
301 N 2 0.75 0 0.125 15.4587 -6.07189
302 N 2 0.875 0.125 0.125 5.1529 -6.07189
303 N 2 0.875 0 0.25 5.1529 -6.07189
304 N 2 0.75 0.125 0.25 15.4587 -6.07189
317 N 2 0.75 0.25 0.125 10.3058 -6.07189
319 N 2 0.875 0.25 0.25 10.3058 -6.07189
18 Zr 1 0.125 0.375 0 15.4587 -14.3481
20 Zr 1 0 0.375 0.125 15.4587 -14.3481
24 Zr 1 0.25 0.375 0.125 10.3058 -14.3481
33 Zr 1 0 0.5 0 15.4587 -14.3481
34 Zr 1 0.125 0.625 0 15.4587 -14.3481
35 Zr 1 0.125 0.5 0.125 5.1529 -14.3481
36 Zr 1 0 0.625 0.125 15.4587 -14.3481
37 Zr 1 0.25 0.5 0 5.1529 -14.3481
40 Zr 1 0.25 0.625 0.125 10.3058 -14.3481
82 Zr 1 0.125 0.375 0.25 15.4587 -14.3481
97 Zr 1 0 0.5 0.25 10.3058 -14.3481
98 Zr 1 0.125 0.625 0.25 10.3058 -14.3481
101 Zr 1 0.25 0.5 0.25 10.3058 -14.3481
266 N 2 0 0.375 0 10.3058 -6.07189
268 N 2 0.25 0.375 0 10.3058 -6.07189
273 N 2 0.125 0.5 0 10.3058 -6.07189
274 N 2 0 0.625 0 15.4587 -6.07189
276 N 2 0.25 0.625 0 15.4587 -6.07189
306 N 2 0.125 0.375 0.125 15.4587 -6.07189
308 N 2 0 0.375 0.25 10.3058 -6.07189
312 N 2 0.25 0.375 0.25 15.4587 -6.07189
321 N 2 0 0.5 0.125 10.3058 -6.07189
322 N 2 0.125 0.625 0.125 10.3058 -6.07189
323 N 2 0.125 0.5 0.25 5.1529 -6.07189
324 N 2 0 0.625 0.25 15.4587 -6.07189
325 N 2 0.25 0.5 0.125 5.1529 -6.07189
328 N 2 0.25 0.625 0.25 15.4587 -6.07189
22 Zr 1 0.375 0.375 0 10.3058 -14.3481
26 Zr 1 0.625 0.375 0 10.3058 -14.3481
28 Zr 1 0.5 0.375 0.125 10.3058 -14.3481
38 Zr 1 0.375 0.625 0 10.3058 -14.3481
39 Zr 1 0.375 0.5 0.125 15.4587 -14.3481
41 Zr 1 0.5 0.5 0 10.3058 -14.3481
42 Zr 1 0.625 0.625 0 10.3058 -14.3481
43 Zr 1 0.625 0.5 0.125 10.3058 -14.3481
44 Zr 1 0.5 0.625 0.125 10.3058 -14.3481
86 Zr 1 0.375 0.375 0.25 10.3058 -14.3481
90 Zr 1 0.625 0.375 0.25 15.4587 -14.3481
102 Zr 1 0.375 0.625 0.25 10.3058 -14.3481
105 Zr 1 0.5 0.5 0.25 5.1529 -14.3481
106 Zr 1 0.625 0.625 0.25 10.3058 -14.3481
270 N 2 0.5 0.375 0 15.4587 -6.07189
275 N 2 0.375 0.5 0 10.3058 -6.07189
277 N 2 0.625 0.5 0 10.3058 -6.07189
278 N 2 0.5 0.625 0 15.4587 -6.07189
310 N 2 0.375 0.375 0.125 10.3058 -6.07189
314 N 2 0.625 0.375 0.125 15.4587 -6.07189
316 N 2 0.5 0.375 0.25 15.4587 -6.07189
326 N 2 0.375 0.625 0.125 10.3058 -6.07189
327 N 2 0.375 0.5 0.25 15.4587 -6.07189
329 N 2 0.5 0.5 0.125 5.1529 -6.07189
330 N 2 0.625 0.625 0.125 10.3058 -6.07189
331 N 2 0.625 0.5 0.25 10.3058 -6.07189
332 N 2 0.5 0.625 0.25 15.4587 -6.07189
30 Zr 1 0.875 0.375 0 15.4587 -14.3481
32 Zr 1 0.75 0.375 0.125 10.3058 -14.3481
45 Zr 1 0.75 0.5 0 10.3058 -14.3481
46 Zr 1 0.875 0.625 0 10.3058 -14.3481
47 Zr 1 0.875 0.5 0.125 0 -14.3481
48 Zr 1 0.75 0.625 0.125 10.3058 -14.3481
94 Zr 1 0.875 0.375 0.25 10.3058 -14.3481
109 Zr 1 0.75 0.5 0.25 15.4587 -14.3481
110 Zr 1 0.875 0.625 0.25 10.3058 -14.3481
272 N 2 0.75 0.375 0 15.4587 -6.07189
279 N 2 0.875 0.5 0 15.4587 -6.07189
280 N 2 0.75 0.625 0 10.3058 -6.07189
318 N 2 0.875 0.375 0.125 10.3058 -6.07189
320 N 2 0.75 0.375 0.25 10.3058 -6.07189
333 N 2 0.75 0.5 0.125 10.3058 -6.07189
334 N 2 0.875 0.625 0.125 10.3058 -6.07189
335 N 2 0.875 0.5 0.25 5.1529 -6.07189
336 N 2 0.75 0.625 0.25 15.4587 -6.07189
49 Zr 1 0 0.75 0 10.3058 -14.3481
50 Zr 1 0.125 0.875 0 10.3058 -14.3481
51 Zr 1 0.125 0.75 0.125 15.4587 -14.3481
52 Zr 1 0 0.875 0.125 10.3058 -14.3481
53 Zr 1 0.25 0.75 0 10.3058 -14.3481
56 Zr 1 0.25 0.875 0.125 5.1529 -14.3481
113 Zr 1 0 0.75 0.25 15.4587 -14.3481
114 Zr 1 0.125 0.875 0.25 5.1529 -14.3481
117 Zr 1 0.25 0.75 0.25 10.3058 -14.3481
281 N 2 0.125 0.75 0 15.4587 -6.07189
282 N 2 0 0.875 0 10.3058 -6.07189
284 N 2 0.25 0.875 0 5.1529 -6.07189
337 N 2 0 0.75 0.125 15.4587 -6.07189
338 N 2 0.125 0.875 0.125 5.1529 -6.07189
339 N 2 0.125 0.75 0.25 10.3058 -6.07189
340 N 2 0 0.875 0.25 10.3058 -6.07189
341 N 2 0.25 0.75 0.125 10.3058 -6.07189
344 N 2 0.25 0.875 0.25 10.3058 -6.07189
54 Zr 1 0.375 0.875 0 15.4587 -14.3481
55 Zr 1 0.375 0.75 0.125 10.3058 -14.3481
57 Zr 1 0.5 0.75 0 10.3058 -14.3481
58 Zr 1 0.625 0.875 0 10.3058 -14.3481
59 Zr 1 0.625 0.75 0.125 10.3058 -14.3481
60 Zr 1 0.5 0.875 0.125 5.1529 -14.3481
118 Zr 1 0.375 0.875 0.25 10.3058 -14.3481
121 Zr 1 0.5 0.75 0.25 10.3058 -14.3481
122 Zr 1 0.625 0.875 0.25 10.3058 -14.3481
283 N 2 0.375 0.75 0 10.3058 -6.07189
285 N 2 0.625 0.75 0 10.3058 -6.07189
286 N 2 0.5 0.875 0 5.1529 -6.07189
342 N 2 0.375 0.875 0.125 10.3058 -6.07189
343 N 2 0.375 0.75 0.25 15.4587 -6.07189
345 N 2 0.5 0.75 0.125 15.4587 -6.07189
346 N 2 0.625 0.875 0.125 15.4587 -6.07189
347 N 2 0.625 0.75 0.25 10.3058 -6.07189
348 N 2 0.5 0.875 0.25 5.1529 -6.07189
61 Zr 1 0.75 0.75 0 15.4587 -14.3481
62 Zr 1 0.875 0.875 0 15.4587 -14.3481
63 Zr 1 0.875 0.75 0.125 10.3058 -14.3481
64 Zr 1 0.75 0.875 0.125 10.3058 -14.3481
125 Zr 1 0.75 0.75 0.25 10.3058 -14.3481
126 Zr 1 0.875 0.875 0.25 5.1529 -14.3481
287 N 2 0.875 0.75 0 10.3058 -6.07189
288 N 2 0.75 0.875 0 10.3058 -6.07189
349 N 2 0.75 0.75 0.125 10.3058 -6.07189
350 N 2 0.875 0.875 0.125 5.1529 -6.07189
351 N 2 0.875 0.75 0.25 10.3058 -6.07189
352 N 2 0.75 0.875 0.25 10.3058 -6.07189
67 Zr 1 0.125 0 0.375 15.4587 -14.3481
68 Zr 1 0 0.125 0.375 15.4587 -14.3481
72 Zr 1 0.25 0.125 0.375 10.3058 -14.3481
83 Zr 1 0.125 0.25 0.375 15.4587 -14.3481
129 Zr 1 0 0 0.5 10.3058 -14.3481
130 Zr 1 0.125 0.125 0.5 5.1529 -14.3481
131 Zr 1 0.125 0 0.625 15.4587 -14.3481
132 Zr 1 0 0.125 0.625 15.4587 -14.3481
133 Zr 1 0.25 0 0.5 10.3058 -14.3481
136 Zr 1 0.25 0.125 0.625 10.3058 -14.3481
145 Zr 1 0 0.25 0.5 10.3058 -14.3481
147 Zr 1 0.125 0.25 0.625 10.3058 -14.3481
149 Zr 1 0.25 0.25 0.5 15.4587 -14.3481
353 N 2 0 0 0.375 10.3058 -6.07189
354 N 2 0.125 0.125 0.375 10.3058 -6.07189
355 N 2 0.125 0 0.5 10.3058 -6.07189
356 N 2 0 0.125 0.5 5.1529 -6.07189
357 N 2 0.25 0 0.375 10.3058 -6.07189
360 N 2 0.25 0.125 0.5 5.1529 -6.07189
369 N 2 0 0.25 0.375 10.3058 -6.07189
371 N 2 0.125 0.25 0.5 5.1529 -6.07189
373 N 2 0.25 0.25 0.375 15.4587 -6.07189
417 N 2 0 0 0.625 15.4587 -6.07189
418 N 2 0.125 0.125 0.625 5.1529 -6.07189
421 N 2 0.25 0 0.625 5.1529 -6.07189
433 N 2 0 0.25 0.625 5.1529 -6.07189
437 N 2 0.25 0.25 0.625 10.3058 -6.07189
71 Zr 1 0.375 0 0.375 15.4587 -14.3481
75 Zr 1 0.625 0 0.375 15.4587 -14.3481
76 Zr 1 0.5 0.125 0.375 10.3058 -14.3481
87 Zr 1 0.375 0.25 0.375 10.3058 -14.3481
91 Zr 1 0.625 0.25 0.375 10.3058 -14.3481
134 Zr 1 0.375 0.125 0.5 10.3058 -14.3481
135 Zr 1 0.375 0 0.625 10.3058 -14.3481
137 Zr 1 0.5 0 0.5 10.3058 -14.3481
138 Zr 1 0.625 0.125 0.5 15.4587 -14.3481
139 Zr 1 0.625 0 0.625 10.3058 -14.3481
140 Zr 1 0.5 0.125 0.625 10.3058 -14.3481
151 Zr 1 0.375 0.25 0.625 10.3058 -14.3481
153 Zr 1 0.5 0.25 0.5 5.1529 -14.3481
155 Zr 1 0.625 0.25 0.625 10.3058 -14.3481
358 N 2 0.375 0.125 0.375 15.4587 -6.07189
359 N 2 0.375 0 0.5 15.4587 -6.07189
361 N 2 0.5 0 0.375 15.4587 -6.07189
362 N 2 0.625 0.125 0.375 15.4587 -6.07189
363 N 2 0.625 0 0.5 10.3058 -6.07189
364 N 2 0.5 0.125 0.5 5.1529 -6.07189
375 N 2 0.375 0.25 0.5 10.3058 -6.07189
377 N 2 0.5 0.25 0.375 10.3058 -6.07189
379 N 2 0.625 0.25 0.5 10.3058 -6.07189
422 N 2 0.375 0.125 0.625 5.1529 -6.07189
425 N 2 0.5 0 0.625 10.3058 -6.07189
426 N 2 0.625 0.125 0.625 15.4587 -6.07189
441 N 2 0.5 0.25 0.625 5.1529 -6.07189
79 Zr 1 0.875 0 0.375 15.4587 -14.3481
80 Zr 1 0.75 0.125 0.375 15.4587 -14.3481
95 Zr 1 0.875 0.25 0.375 10.3058 -14.3481
141 Zr 1 0.75 0 0.5 15.4587 -14.3481
142 Zr 1 0.875 0.125 0.5 5.1529 -14.3481
143 Zr 1 0.875 0 0.625 10.3058 -14.3481
144 Zr 1 0.75 0.125 0.625 10.3058 -14.3481
157 Zr 1 0.75 0.25 0.5 15.4587 -14.3481
159 Zr 1 0.875 0.25 0.625 15.4587 -14.3481
365 N 2 0.75 0 0.375 15.4587 -6.07189
366 N 2 0.875 0.125 0.375 10.3058 -6.07189
367 N 2 0.875 0 0.5 15.4587 -6.07189
368 N 2 0.75 0.125 0.5 10.3058 -6.07189
381 N 2 0.75 0.25 0.375 10.3058 -6.07189
383 N 2 0.875 0.25 0.5 5.1529 -6.07189
429 N 2 0.75 0 0.625 10.3058 -6.07189
430 N 2 0.875 0.125 0.625 5.1529 -6.07189
445 N 2 0.75 0.25 0.625 10.3058 -6.07189
84 Zr 1 0 0.375 0.375 15.4587 -14.3481
88 Zr 1 0.25 0.375 0.375 10.3058 -14.3481
99 Zr 1 0.125 0.5 0.375 10.3058 -14.3481
100 Zr 1 0 0.625 0.375 10.3058 -14.3481
104 Zr 1 0.25 0.625 0.375 15.4587 -14.3481
146 Zr 1 0.125 0.375 0.5 10.3058 -14.3481
148 Zr 1 0 0.375 0.625 10.3058 -14.3481
152 Zr 1 0.25 0.375 0.625 10.3058 -14.3481
161 Zr 1 0 0.5 0.5 15.4587 -14.3481
162 Zr 1 0.125 0.625 0.5 15.4587 -14.3481
163 Zr 1 0.125 0.5 0.625 5.1529 -14.3481
164 Zr 1 0 0.625 0.625 10.3058 -14.3481
165 Zr 1 0.25 0.5 0.5 5.1529 -14.3481
168 Zr 1 0.25 0.625 0.625 10.3058 -14.3481
370 N 2 0.125 0.375 0.375 15.4587 -6.07189
372 N 2 0 0.375 0.5 10.3058 -6.07189
376 N 2 0.25 0.375 0.5 10.3058 -6.07189
385 N 2 0 0.5 0.375 10.3058 -6.07189
386 N 2 0.125 0.625 0.375 10.3058 -6.07189
387 N 2 0.125 0.5 0.5 5.1529 -6.07189
388 N 2 0 0.625 0.5 10.3058 -6.07189
389 N 2 0.25 0.5 0.375 10.3058 -6.07189
392 N 2 0.25 0.625 0.5 15.4587 -6.07189
434 N 2 0.125 0.375 0.625 10.3058 -6.07189
449 N 2 0 0.5 0.625 10.3058 -6.07189
450 N 2 0.125 0.625 0.625 10.3058 -6.07189
453 N 2 0.25 0.5 0.625 5.1529 -6.07189
92 Zr 1 0.5 0.375 0.375 10.3058 -14.3481
103 Zr 1 0.375 0.5 0.375 10.3058 -14.3481
107 Zr 1 0.625 0.5 0.375 15.4587 -14.3481
108 Zr 1 0.5 0.625 0.375 15.4587 -14.3481
150 Zr 1 0.375 0.375 0.5 10.3058 -14.3481
154 Zr 1 0.625 0.375 0.5 10.3058 -14.3481
156 Zr 1 0.5 0.375 0.625 15.4587 -14.3481
166 Zr 1 0.375 0.625 0.5 10.3058 -14.3481
167 Zr 1 0.375 0.5 0.625 15.4587 -14.3481
169 Zr 1 0.5 0.5 0.5 10.3058 -14.3481
170 Zr 1 0.625 0.625 0.5 10.3058 -14.3481
171 Zr 1 0.625 0.5 0.625 15.4587 -14.3481
172 Zr 1 0.5 0.625 0.625 10.3058 -14.3481
374 N 2 0.375 0.375 0.375 15.4587 -6.07189
378 N 2 0.625 0.375 0.375 10.3058 -6.07189
380 N 2 0.5 0.375 0.5 10.3058 -6.07189
390 N 2 0.375 0.625 0.375 15.4587 -6.07189
391 N 2 0.375 0.5 0.5 5.1529 -6.07189
393 N 2 0.5 0.5 0.375 15.4587 -6.07189
394 N 2 0.625 0.625 0.375 10.3058 -6.07189
395 N 2 0.625 0.5 0.5 10.3058 -6.07189
396 N 2 0.5 0.625 0.5 10.3058 -6.07189
438 N 2 0.375 0.375 0.625 10.3058 -6.07189
442 N 2 0.625 0.375 0.625 10.3058 -6.07189
454 N 2 0.375 0.625 0.625 10.3058 -6.07189
457 N 2 0.5 0.5 0.625 10.3058 -6.07189
458 N 2 0.625 0.625 0.625 15.4587 -6.07189
96 Zr 1 0.75 0.375 0.375 15.4587 -14.3481
111 Zr 1 0.875 0.5 0.375 15.4587 -14.3481
112 Zr 1 0.75 0.625 0.375 15.4587 -14.3481
158 Zr 1 0.875 0.375 0.5 10.3058 -14.3481
160 Zr 1 0.75 0.375 0.625 10.3058 -14.3481
173 Zr 1 0.75 0.5 0.5 10.3058 -14.3481
174 Zr 1 0.875 0.625 0.5 10.3058 -14.3481
175 Zr 1 0.875 0.5 0.625 15.4587 -14.3481
176 Zr 1 0.75 0.625 0.625 15.4587 -14.3481
382 N 2 0.875 0.375 0.375 10.3058 -6.07189
384 N 2 0.75 0.375 0.5 10.3058 -6.07189
397 N 2 0.75 0.5 0.375 10.3058 -6.07189
398 N 2 0.875 0.625 0.375 15.4587 -6.07189
399 N 2 0.875 0.5 0.5 15.4587 -6.07189
400 N 2 0.75 0.625 0.5 15.4587 -6.07189
446 N 2 0.875 0.375 0.625 5.1529 -6.07189
461 N 2 0.75 0.5 0.625 5.1529 -6.07189
462 N 2 0.875 0.625 0.625 5.1529 -6.07189
115 Zr 1 0.125 0.75 0.375 15.4587 -14.3481
116 Zr 1 0 0.875 0.375 15.4587 -14.3481
120 Zr 1 0.25 0.875 0.375 10.3058 -14.3481
177 Zr 1 0 0.75 0.5 10.3058 -14.3481
178 Zr 1 0.125 0.875 0.5 5.1529 -14.3481
179 Zr 1 0.125 0.75 0.625 15.4587 -14.3481
180 Zr 1 0 0.875 0.625 10.3058 -14.3481
181 Zr 1 0.25 0.75 0.5 10.3058 -14.3481
184 Zr 1 0.25 0.875 0.625 10.3058 -14.3481
401 N 2 0 0.75 0.375 15.4587 -6.07189
402 N 2 0.125 0.875 0.375 15.4587 -6.07189
403 N 2 0.125 0.75 0.5 10.3058 -6.07189
404 N 2 0 0.875 0.5 10.3058 -6.07189
405 N 2 0.25 0.75 0.375 10.3058 -6.07189
408 N 2 0.25 0.875 0.5 5.1529 -6.07189
465 N 2 0 0.75 0.625 15.4587 -6.07189
466 N 2 0.125 0.875 0.625 5.1529 -6.07189
469 N 2 0.25 0.75 0.625 10.3058 -6.07189
119 Zr 1 0.375 0.75 0.375 10.3058 -14.3481
123 Zr 1 0.625 0.75 0.375 15.4587 -14.3481
124 Zr 1 0.5 0.875 0.375 10.3058 -14.3481
182 Zr 1 0.375 0.875 0.5 10.3058 -14.3481
183 Zr 1 0.375 0.75 0.625 10.3058 -14.3481
185 Zr 1 0.5 0.75 0.5 10.3058 -14.3481
186 Zr 1 0.625 0.875 0.5 10.3058 -14.3481
187 Zr 1 0.625 0.75 0.625 10.3058 -14.3481
188 Zr 1 0.5 0.875 0.625 10.3058 -14.3481
406 N 2 0.375 0.875 0.375 10.3058 -6.07189
407 N 2 0.375 0.75 0.5 10.3058 -6.07189
409 N 2 0.5 0.75 0.375 10.3058 -6.07189
410 N 2 0.625 0.875 0.375 10.3058 -6.07189
411 N 2 0.625 0.75 0.5 15.4587 -6.07189
412 N 2 0.5 0.875 0.5 15.4587 -6.07189
470 N 2 0.375 0.875 0.625 10.3058 -6.07189
473 N 2 0.5 0.75 0.625 10.3058 -6.07189
474 N 2 0.625 0.875 0.625 5.1529 -6.07189
127 Zr 1 0.875 0.75 0.375 15.4587 -14.3481
128 Zr 1 0.75 0.875 0.375 15.4587 -14.3481
189 Zr 1 0.75 0.75 0.5 15.4587 -14.3481
190 Zr 1 0.875 0.875 0.5 10.3058 -14.3481
191 Zr 1 0.875 0.75 0.625 10.3058 -14.3481
192 Zr 1 0.75 0.875 0.625 10.3058 -14.3481
413 N 2 0.75 0.75 0.375 15.4587 -6.07189
414 N 2 0.875 0.875 0.375 10.3058 -6.07189
415 N 2 0.875 0.75 0.5 10.3058 -6.07189
416 N 2 0.75 0.875 0.5 10.3058 -6.07189
477 N 2 0.75 0.75 0.625 10.3058 -6.07189
478 N 2 0.875 0.875 0.625 10.3058 -6.07189
193 Zr 1 0 0 0.75 15.4587 -14.3481
194 Zr 1 0.125 0.125 0.75 15.4587 -14.3481
195 Zr 1 0.125 0 0.875 10.3058 -14.3481
196 Zr 1 0 0.125 0.875 10.3058 -14.3481
197 Zr 1 0.25 0 0.75 10.3058 -14.3481
200 Zr 1 0.25 0.125 0.875 5.1529 -14.3481
209 Zr 1 0 0.25 0.75 10.3058 -14.3481
211 Zr 1 0.125 0.25 0.875 5.1529 -14.3481
213 Zr 1 0.25 0.25 0.75 10.3058 -14.3481
419 N 2 0.125 0 0.75 15.4587 -6.07189
420 N 2 0 0.125 0.75 15.4587 -6.07189
424 N 2 0.25 0.125 0.75 15.4587 -6.07189
435 N 2 0.125 0.25 0.75 15.4587 -6.07189
481 N 2 0 0 0.875 15.4587 -6.07189
482 N 2 0.125 0.125 0.875 15.4587 -6.07189
483 N 2 0.25 0 0.875 10.3058 -6.07189
489 N 2 0 0.25 0.875 10.3058 -6.07189
491 N 2 0.25 0.25 0.875 15.4587 -6.07189
198 Zr 1 0.375 0.125 0.75 10.3058 -14.3481
199 Zr 1 0.375 0 0.875 10.3058 -14.3481
201 Zr 1 0.5 0 0.75 15.4587 -14.3481
202 Zr 1 0.625 0.125 0.75 10.3058 -14.3481
203 Zr 1 0.625 0 0.875 15.4587 -14.3481
204 Zr 1 0.5 0.125 0.875 5.1529 -14.3481
215 Zr 1 0.375 0.25 0.875 10.3058 -14.3481
217 Zr 1 0.5 0.25 0.75 10.3058 -14.3481
219 Zr 1 0.625 0.25 0.875 10.3058 -14.3481
423 N 2 0.375 0 0.75 15.4587 -6.07189
427 N 2 0.625 0 0.75 10.3058 -6.07189
428 N 2 0.5 0.125 0.75 15.4587 -6.07189
439 N 2 0.375 0.25 0.75 10.3058 -6.07189
443 N 2 0.625 0.25 0.75 15.4587 -6.07189
484 N 2 0.375 0.125 0.875 10.3058 -6.07189
485 N 2 0.5 0 0.875 15.4587 -6.07189
486 N 2 0.625 0.125 0.875 10.3058 -6.07189
493 N 2 0.5 0.25 0.875 10.3058 -6.07189
205 Zr 1 0.75 0 0.75 10.3058 -14.3481
206 Zr 1 0.875 0.125 0.75 10.3058 -14.3481
207 Zr 1 0.875 0 0.875 10.3058 -14.3481
208 Zr 1 0.75 0.125 0.875 10.3058 -14.3481
221 Zr 1 0.75 0.25 0.75 10.3058 -14.3481
223 Zr 1 0.875 0.25 0.875 5.1529 -14.3481
431 N 2 0.875 0 0.75 10.3058 -6.07189
432 N 2 0.75 0.125 0.75 10.3058 -6.07189
447 N 2 0.875 0.25 0.75 15.4587 -6.07189
487 N 2 0.75 0 0.875 15.4587 -6.07189
488 N 2 0.875 0.125 0.875 10.3058 -6.07189
495 N 2 0.75 0.25 0.875 10.3058 -6.07189
210 Zr 1 0.125 0.375 0.75 10.3058 -14.3481
212 Zr 1 0 0.375 0.875 10.3058 -14.3481
216 Zr 1 0.25 0.375 0.875 10.3058 -14.3481
225 Zr 1 0 0.5 0.75 15.4587 -14.3481
226 Zr 1 0.125 0.625 0.75 10.3058 -14.3481
227 Zr 1 0.125 0.5 0.875 5.1529 -14.3481
228 Zr 1 0 0.625 0.875 10.3058 -14.3481
229 Zr 1 0.25 0.5 0.75 15.4587 -14.3481
232 Zr 1 0.25 0.625 0.875 10.3058 -14.3481
436 N 2 0 0.375 0.75 10.3058 -6.07189
440 N 2 0.25 0.375 0.75 15.4587 -6.07189
451 N 2 0.125 0.5 0.75 15.4587 -6.07189
452 N 2 0 0.625 0.75 10.3058 -6.07189
456 N 2 0.25 0.625 0.75 10.3058 -6.07189
490 N 2 0.125 0.375 0.875 15.4587 -6.07189
497 N 2 0 0.5 0.875 10.3058 -6.07189
498 N 2 0.125 0.625 0.875 10.3058 -6.07189
499 N 2 0.25 0.5 0.875 10.3058 -6.07189
214 Zr 1 0.375 0.375 0.75 10.3058 -14.3481
218 Zr 1 0.625 0.375 0.75 15.4587 -14.3481
220 Zr 1 0.5 0.375 0.875 15.4587 -14.3481
230 Zr 1 0.375 0.625 0.75 10.3058 -14.3481
231 Zr 1 0.375 0.5 0.875 10.3058 -14.3481
233 Zr 1 0.5 0.5 0.75 10.3058 -14.3481
234 Zr 1 0.625 0.625 0.75 10.3058 -14.3481
235 Zr 1 0.625 0.5 0.875 10.3058 -14.3481
236 Zr 1 0.5 0.625 0.875 10.3058 -14.3481
444 N 2 0.5 0.375 0.75 10.3058 -6.07189
455 N 2 0.375 0.5 0.75 10.3058 -6.07189
459 N 2 0.625 0.5 0.75 10.3058 -6.07189
460 N 2 0.5 0.625 0.75 10.3058 -6.07189
492 N 2 0.375 0.375 0.875 10.3058 -6.07189
494 N 2 0.625 0.375 0.875 10.3058 -6.07189
500 N 2 0.375 0.625 0.875 15.4587 -6.07189
501 N 2 0.5 0.5 0.875 5.1529 -6.07189
502 N 2 0.625 0.625 0.875 10.3058 -6.07189
222 Zr 1 0.875 0.375 0.75 15.4587 -14.3481
224 Zr 1 0.75 0.375 0.875 10.3058 -14.3481
237 Zr 1 0.75 0.5 0.75 10.3058 -14.3481
238 Zr 1 0.875 0.625 0.75 10.3058 -14.3481
239 Zr 1 0.875 0.5 0.875 5.1529 -14.3481
240 Zr 1 0.75 0.625 0.875 10.3058 -14.3481
448 N 2 0.75 0.375 0.75 15.4587 -6.07189
463 N 2 0.875 0.5 0.75 10.3058 -6.07189
464 N 2 0.75 0.625 0.75 10.3058 -6.07189
496 N 2 0.875 0.375 0.875 10.3058 -6.07189
503 N 2 0.75 0.5 0.875 10.3058 -6.07189
504 N 2 0.875 0.625 0.875 10.3058 -6.07189
241 Zr 1 0 0.75 0.75 10.3058 -14.3481
242 Zr 1 0.125 0.875 0.75 10.3058 -14.3481
243 Zr 1 0.125 0.75 0.875 10.3058 -14.3481
244 Zr 1 0 0.875 0.875 5.1529 -14.3481
245 Zr 1 0.25 0.75 0.75 10.3058 -14.3481
248 Zr 1 0.25 0.875 0.875 5.1529 -14.3481
467 N 2 0.125 0.75 0.75 15.4587 -6.07189
468 N 2 0 0.875 0.75 10.3058 -6.07189
472 N 2 0.25 0.875 0.75 10.3058 -6.07189
505 N 2 0 0.75 0.875 10.3058 -6.07189
506 N 2 0.125 0.875 0.875 5.1529 -6.07189
507 N 2 0.25 0.75 0.875 15.4587 -6.07189
246 Zr 1 0.375 0.875 0.75 10.3058 -14.3481
247 Zr 1 0.375 0.75 0.875 10.3058 -14.3481
249 Zr 1 0.5 0.75 0.75 15.4587 -14.3481
250 Zr 1 0.625 0.875 0.75 10.3058 -14.3481
251 Zr 1 0.625 0.75 0.875 15.4587 -14.3481
252 Zr 1 0.5 0.875 0.875 10.3058 -14.3481
471 N 2 0.375 0.75 0.75 10.3058 -6.07189
475 N 2 0.625 0.75 0.75 10.3058 -6.07189
476 N 2 0.5 0.875 0.75 15.4587 -6.07189
508 N 2 0.375 0.875 0.875 10.3058 -6.07189
509 N 2 0.5 0.75 0.875 10.3058 -6.07189
510 N 2 0.625 0.875 0.875 15.4587 -6.07189
253 Zr 1 0.75 0.75 0.75 15.4587 -14.3481
254 Zr 1 0.875 0.875 0.75 5.1529 -14.3481
255 Zr 1 0.875 0.75 0.875 10.3058 -14.3481
256 Zr 1 0.75 0.875 0.875 10.3058 -14.3481
479 N 2 0.875 0.75 0.75 10.3058 -6.07189
480 N 2 0.75 0.875 0.75 15.4587 -6.07189
511 N 2 0.75 0.75 0.875 10.3058 -6.07189
512 N 2 0.875 0.875 0.875 10.3058 -6.07189
