ITEM: TIMESTEP
418
ITEM: NUMBER OF ATOMS
55
ITEM: BOX BOUNDS pp pp pp
-4.5400000000000000e+00 4.5400000000000000e+00
-4.5400000000000000e+00 4.5400000000000000e+00
-4.5400000000000000e+00 4.5400000000000000e+00
ITEM: ATOMS id type element xs ys zs c_csym c_eng
1 1 Zr 0.0469842 0.0802236 0.00961521 10.9008 -20.0897
2 1 Zr 0.138513 0.265449 0.0893246 12.8313 -16.426
3 1 Zr 0.353922 0.0402361 0.202361 8.34474 -19.967
4 1 Zr 0.985795 0.287483 0.310498 14.3432 -14.8268
5 1 Zr 0.673464 0.069273 1.00265 6.87342 -22.1793
6 1 Zr 0.860453 0.0625014 0.13151 12.9336 -17.5243
7 1 Zr 0.792956 0.908996 0.399224 14.5329 -14.4242
8 1 Zr 0.473548 0.227301 0.101953 10.3 -17.6744
9 1 Zr 0.0851146 0.472302 0.980329 13.4545 -17.3683
10 1 Zr 0.209925 0.914254 0.04908 11.1689 -21.9097
11 1 Zr 0.179909 0.640611 0.115793 9.00395 -21.8635
12 1 Zr 0.0181421 0.687853 0.288841 17.4863 -16.9882
13 1 Zr 0.48065 0.499901 0.805861 11.1034 -18.8881
14 1 Zr 0.618635 0.83608 0.980452 11.4091 -17.5152
15 1 Zr 0.722215 0.531709 0.99347 15.0952 -13.988
16 1 Zr 0.5479 0.686551 0.241686 15.7012 -17.2932
17 1 Zr 1.00203 0.906524 0.712942 13.2192 -16.572
18 1 Zr 0.331447 0.259508 0.556916 13.1871 -19.7871
19 1 Zr 0.307991 0.952493 0.799261 9.51098 -16.2769
20 1 Zr 0.12903 0.250889 0.712258 5.22978 -15.1844
21 1 Zr 0.352035 0.0374617 0.443514 10.3687 -18.0317
22 1 Zr 0.736337 0.27038 0.527267 8.25165 -14.7975
23 1 Zr 0.792744 0.0795187 0.765741 10.6105 -15.3627
24 1 Zr 0.521795 0.295043 0.6828 12.6612 -19.8333
25 1 Zr 0.905379 0.513572 0.402186 9.47441 -17.0827
26 1 Zr 0.249639 0.780069 0.559365 7.92542 -14.5306
27 1 Zr 0.25675 0.550777 0.721171 10.2442 -16.6433
28 1 Zr 0.0088138 0.672443 0.832567 8.38889 -14.9712
29 1 Zr 0.385985 0.504139 0.19949 5.79868 -18.8655
30 1 Zr 0.655728 0.694983 0.473606 7.82549 -18.5221
31 1 Zr 0.733338 0.551063 0.683629 9.3712 -13.9976
32 1 Zr 0.520777 0.7682 0.751529 11.3573 -19.0577
33 2 N 0.972248 0.850093 0.319796 9.57316 -6.94825
34 2 N 0.180701 0.265249 0.253196 9.8654 -6.94148
35 2 N 0.165564 0.966076 0.652274 9.05698 -7.1376
36 2 N 0.961664 0.257778 0.56956 10.7005 -5.16265
37 2 N 0.54469 0.943492 0.249157 7.04736 -4.66705
38 2 N 0.856977 0.126486 0.283403 9.98084 -7.77634
39 2 N 0.749552 0.041005 0.552967 11.7863 -5.74607
40 2 N 0.540641 0.288743 0.353177 10.6866 -4.05387
41 2 N 0.84096 0.402445 0.106885 9.71294 -4.85028
42 2 N 0.258519 0.771927 0.330861 10.016 -4.92687
43 2 N 0.280287 0.411731 0.483335 14.2711 -5.1558
44 2 N -0.00215565 0.654576 0.583013 7.0091 -4.71414
45 2 N 0.489781 0.473705 0.963716 10.1369 -7.93214
46 2 N 0.658075 0.715619 0.103976 10.6955 -8.33918
47 2 N 0.746246 0.542302 0.485494 13.4465 -8.87396
48 2 N 0.411966 0.903164 0.531778 8.69841 -6.87804
49 2 N 0.0150231 0.0999098 0.858146 11.4201 -8.92356
50 2 N 0.303336 0.186676 0.941264 10.963 -4.76949
51 2 N 0.545605 0.0564708 0.786889 8.70519 -4.70867
52 2 N 0.736406 0.332692 0.802686 8.03421 -5.12032
53 2 N 0.107068 0.484286 0.812254 10.4287 -8.95651
54 2 N 0.290753 0.722467 0.890512 10.9601 -5.49108
55 2 N 0.768154 0.705321 0.80608 10.6003 -6.20628
