ITEM: TIMESTEP
24
ITEM: NUMBER OF ATOMS
63
ITEM: BOX BOUNDS pp pp pp
0.0000000000000000e+00 9.0800000000000001e+00
0.0000000000000000e+00 9.0800000000000001e+00
0.0000000000000000e+00 9.0800000000000001e+00
ITEM: ATOMS id type element xs ys zs c_csym c_eng
1 1 Zr 3.55262e-14 -6.14576e-13 -0.0328068 9.33762 -14.2525
2 1 Zr 0.251049 0.251049 -0.00104885 14.8839 -14.3495
3 1 Zr 0.282807 -6.02394e-13 0.25 9.33762 -14.2525
4 1 Zr 3.15151e-14 0.282807 0.25 9.33762 -14.2525
5 1 Zr 0.5 2.34386e-13 -0.00417562 4.07165 -14.3733
6 1 Zr 0.748951 0.251049 -0.00104885 14.8839 -14.3495
7 1 Zr 0.717193 -6.03443e-13 0.25 9.33762 -14.2525
8 1 Zr 0.5 0.254176 0.25 4.07165 -14.3733
9 1 Zr 6.2976e-14 0.5 -0.00417562 4.07165 -14.3733
10 1 Zr 0.251049 0.748951 -0.00104885 14.8839 -14.3495
11 1 Zr 0.254176 0.5 0.25 4.07165 -14.3733
12 1 Zr 3.036e-14 0.717193 0.25 9.33762 -14.2525
13 1 Zr 0.5 0.5 -0.00123259 4.98849 -14.3723
14 1 Zr 0.748951 0.748951 -0.00104885 14.8839 -14.3495
15 1 Zr 0.745824 0.5 0.25 4.07165 -14.3733
16 1 Zr 0.5 0.745824 0.25 4.07165 -14.3733
17 1 Zr 2.75161e-14 -5.88084e-13 0.532807 9.33762 -14.2525
18 1 Zr 0.251049 0.251049 0.501049 14.8839 -14.3495
19 1 Zr 0.254176 2.35312e-13 0.75 4.07165 -14.3733
20 1 Zr 6.33347e-14 0.254176 0.75 4.07165 -14.3733
21 1 Zr 0.5 2.35042e-13 0.504176 4.07165 -14.3733
22 1 Zr 0.748951 0.251049 0.501049 14.8839 -14.3495
23 1 Zr 0.745824 2.34503e-13 0.75 4.07165 -14.3733
24 1 Zr 0.5 0.251233 0.75 4.98849 -14.3723
25 1 Zr 6.24513e-14 0.5 0.504176 4.07165 -14.3733
26 1 Zr 0.251049 0.748951 0.501049 14.8839 -14.3495
27 1 Zr 0.251233 0.5 0.75 4.98849 -14.3723
28 1 Zr 6.22311e-14 0.745824 0.75 4.07165 -14.3733
29 1 Zr 0.5 0.5 0.501233 4.98849 -14.3723
30 1 Zr 0.748951 0.748951 0.501049 14.8839 -14.3495
31 1 Zr 0.748767 0.5 0.75 4.98849 -14.3723
32 1 Zr 0.5 0.748767 0.75 4.98849 -14.3723
33 2 N 0.247227 -6.16584e-12 0.00277287 7.70939 -6.01148
34 2 N -6.06185e-12 0.247227 0.00277287 7.70939 -6.01148
35 2 N 0.752773 6.15672e-12 0.00277287 7.70939 -6.01148
36 2 N 0.5 0.249152 0.000847566 4.92608 -6.08732
37 2 N 0.249152 0.5 0.000847566 9.83957 -6.08732
38 2 N 6.26064e-12 0.752773 0.00277287 7.70939 -6.01148
39 2 N 0.750848 0.5 0.000847566 9.83957 -6.08732
40 2 N 0.5 0.750848 0.000847566 9.83957 -6.08732
41 2 N 0.750848 0.750848 0.75 9.83957 -6.08732
42 2 N 0.247227 0.247227 0.25 7.70939 -6.01148
43 2 N 0.247227 6.26338e-12 0.497227 7.70939 -6.01148
44 2 N 6.3426e-12 0.247227 0.497227 7.70939 -6.01148
45 2 N 0.5 -2.68925e-11 0.25 5.1201 -6.65668
46 2 N 0.752773 0.247227 0.25 7.70939 -6.01148
47 2 N 0.752773 -6.27005e-12 0.497227 7.70939 -6.01148
48 2 N 0.5 0.249152 0.499152 4.92608 -6.08732
49 2 N -2.85436e-12 0.5 0.25 5.1201 -6.65668
50 2 N 0.247227 0.752773 0.25 7.70939 -6.01148
51 2 N 0.249152 0.5 0.499152 4.92608 -6.08732
52 2 N -6.19055e-12 0.752773 0.497227 7.70939 -6.01148
53 2 N 0.5 0.5 0.25 5.1201 -6.187
54 2 N 0.752773 0.752773 0.25 7.70939 -6.01148
55 2 N 0.750848 0.5 0.499152 4.92608 -6.08732
56 2 N 0.5 0.750848 0.499152 4.92608 -6.08732
57 2 N -2.82501e-12 -2.68381e-11 0.75 5.1201 -6.65668
58 2 N 0.249152 0.249152 0.75 4.92608 -6.08732
59 2 N 0.5 4.18053e-11 0.75 5.1201 -6.187
60 2 N 0.750848 0.249152 0.75 4.92608 -6.08732
61 2 N 9.32348e-12 0.5 0.75 5.1201 -6.187
62 2 N 0.249152 0.750848 0.75 9.83957 -6.08732
63 2 N 0.5 0.5 0.75 15.5648 -6.12984
