ITEM: TIMESTEP
0
ITEM: NUMBER OF ATOMS
511
ITEM: BOX BOUNDS pp pp pp
0.0000000000000000e+00 1.8160000000000000e+01
0.0000000000000000e+00 1.8160000000000000e+01
0.0000000000000000e+00 1.8160000000000000e+01
ITEM: ATOMS id type element xs ys zs c_csym c_eng
1 1 Zr 3.16581e-18 3.15918e-18 3.13672e-18 15.4587 -14.3352
2 1 Zr 0.125 0.125 2.12109e-18 10.3058 -14.3481
3 1 Zr 0.125 2.13692e-18 0.125 15.4587 -14.3352
4 1 Zr 2.13692e-18 0.125 0.125 15.4587 -14.3352
5 1 Zr 0.25 2.78592e-18 2.76346e-18 10.3058 -14.3481
6 1 Zr 0.25 0.125 0.125 10.3058 -14.3481
7 1 Zr 2.78592e-18 0.25 2.76346e-18 5.1529 -14.3481
8 1 Zr 0.125 0.25 0.125 10.3058 -14.3481
9 1 Zr 0.25 0.25 2.32687e-18 10.3058 -14.3481
10 1 Zr 2.78592e-18 2.76346e-18 0.25 15.4587 -14.3352
11 1 Zr 0.125 0.125 0.25 10.3058 -14.3481
12 1 Zr 0.25 2.32687e-18 0.25 10.3058 -14.3481
13 1 Zr 2.32687e-18 0.25 0.25 15.4587 -14.3481
14 1 Zr 0.25 0.25 0.25 15.4587 -14.3481
15 2 N 0.125 1.71587e-17 0 15.4587 -6.07189
16 2 N 1.71587e-17 0.125 0 10.3058 -6.07189
17 2 N 0.25 0.125 0 10.3058 -6.07189
18 2 N 0.125 0.25 0 10.3058 -6.07189
20 2 N 0.125 0.125 0.125 10.3058 -6.07189
21 2 N 0.125 1.41354e-17 0.25 5.1529 -6.07189
22 2 N 1.41354e-17 0.125 0.25 15.4587 -6.07189
23 2 N 0.25 8.12031e-18 0.125 10.3058 -6.07189
24 2 N 0.25 0.125 0.25 10.3058 -6.07189
25 2 N 1.41354e-17 0.25 0.125 10.3058 -6.07189
26 2 N 0.125 0.25 0.25 10.3058 -6.07189
27 2 N 0.25 0.25 0.125 15.4587 -6.07189
28 1 Zr 0.375 0.125 2.24773e-18 15.4587 -14.3481
29 1 Zr 0.375 2.26356e-18 0.125 15.4587 -14.3481
30 1 Zr 0.5 2.13692e-18 2.13029e-18 15.4587 -14.3481
31 1 Zr 0.625 0.125 2.39019e-18 15.4587 -14.3481
32 1 Zr 0.625 2.39019e-18 0.125 15.4587 -14.3481
33 1 Zr 0.5 0.125 0.125 5.1529 -14.3481
34 1 Zr 0.375 0.25 0.125 10.3058 -14.3481
35 1 Zr 0.5 0.25 2.51682e-18 5.1529 -14.3481
36 1 Zr 0.625 0.25 0.125 10.3058 -14.3481
37 1 Zr 0.375 0.125 0.25 10.3058 -14.3481
38 1 Zr 0.5 2.51682e-18 0.25 10.3058 -14.3481
39 1 Zr 0.625 0.125 0.25 10.3058 -14.3481
40 1 Zr 0.5 0.25 0.25 10.3058 -14.3481
41 2 N 0.375 1.39929e-17 0 10.3058 -6.07189
42 2 N 0.625 1.40562e-17 0 10.3058 -6.07189
43 2 N 0.5 0.125 0 15.4587 -6.07189
44 2 N 0.375 0.25 0 10.3058 -6.07189
45 2 N 0.625 0.25 0 15.4587 -6.07189
46 2 N 0.375 0.125 0.125 15.4587 -6.07189
47 2 N 0.375 1.4072e-17 0.25 10.3058 -6.07189
48 2 N 0.5 1.4072e-17 0.125 15.4587 -6.07189
49 2 N 0.625 0.125 0.125 15.4587 -6.07189
50 2 N 0.625 2.39494e-17 0.25 10.3058 -6.07189
51 2 N 0.5 0.125 0.25 10.3058 -6.07189
52 2 N 0.375 0.25 0.25 15.4587 -6.07189
53 2 N 0.5 0.25 0.125 15.4587 -6.07189
54 2 N 0.625 0.25 0.25 10.3058 -6.07189
55 1 Zr 0.75 2.45351e-18 2.44688e-18 10.3058 -14.3481
56 1 Zr 0.875 0.125 3.33993e-18 10.3058 -14.3481
57 1 Zr 0.875 3.33993e-18 0.125 15.4587 -14.3352
58 1 Zr 0.75 0.125 0.125 15.4587 -14.3481
59 1 Zr 0.75 0.25 2.77009e-18 10.3058 -14.3481
60 1 Zr 0.875 0.25 0.125 5.1529 -14.3481
61 1 Zr 0.75 2.77009e-18 0.25 10.3058 -14.3481
62 1 Zr 0.875 0.125 0.25 5.1529 -14.3481
63 1 Zr 0.75 0.25 0.25 10.3058 -14.3481
64 2 N 0.875 1.43095e-17 0 10.3058 -6.07189
65 2 N 0.75 0.125 0 10.3058 -6.07189
66 2 N 0.875 0.25 0 10.3058 -6.07189
67 2 N 0.75 1.39454e-17 0.125 10.3058 -6.07189
68 2 N 0.875 0.125 0.125 10.3058 -6.07189
69 2 N 0.875 1.39454e-17 0.25 10.3058 -6.07189
70 2 N 0.75 0.125 0.25 15.4587 -6.07189
71 2 N 0.75 0.25 0.125 15.4587 -6.07189
72 2 N 0.875 0.25 0.25 10.3058 -6.07189
73 1 Zr 0.125 0.375 2.24773e-18 15.4587 -14.3481
74 1 Zr 2.26356e-18 0.375 0.125 15.4587 -14.3481
75 1 Zr 0.25 0.375 0.125 10.3058 -14.3481
76 1 Zr 2.15275e-18 0.5 2.13029e-18 15.4587 -14.3481
77 1 Zr 0.125 0.625 2.26356e-18 15.4587 -14.3481
78 1 Zr 0.125 0.5 0.125 5.1529 -14.3481
79 1 Zr 1.63039e-18 0.625 0.125 15.4587 -14.3481
80 1 Zr 0.25 0.5 2.45351e-18 10.3058 -14.3481
81 1 Zr 0.25 0.625 0.125 10.3058 -14.3481
82 1 Zr 0.125 0.375 0.25 10.3058 -14.3481
83 1 Zr 2.45351e-18 0.5 0.25 5.1529 -14.3481
84 1 Zr 0.125 0.625 0.25 15.4587 -14.3481
85 1 Zr 0.25 0.5 0.25 10.3058 -14.3481
86 2 N 1.39929e-17 0.375 0 10.3058 -6.07189
87 2 N 0.25 0.375 0 10.3058 -6.07189
88 2 N 0.125 0.5 0 15.4587 -6.07189
89 2 N 1.40562e-17 0.625 0 10.3058 -6.07189
90 2 N 0.25 0.625 0 10.3058 -6.07189
91 2 N 0.125 0.375 0.125 15.4587 -6.07189
92 2 N 1.4072e-17 0.375 0.25 10.3058 -6.07189
93 2 N 0.25 0.375 0.25 15.4587 -6.07189
94 2 N 1.4072e-17 0.5 0.125 10.3058 -6.07189
95 2 N 0.125 0.625 0.125 15.4587 -6.07189
96 2 N 0.125 0.5 0.25 10.3058 -6.07189
97 2 N 1.39454e-17 0.625 0.25 10.3058 -6.07189
98 2 N 0.25 0.5 0.125 15.4587 -6.07189
99 2 N 0.25 0.625 0.25 15.4587 -6.07189
100 1 Zr 0.375 0.375 3.00752e-18 10.3058 -14.3481
101 1 Zr 0.625 0.375 2.96004e-18 10.3058 -14.3481
102 1 Zr 0.5 0.375 0.125 15.4587 -14.3481
103 1 Zr 0.375 0.625 2.96004e-18 10.3058 -14.3481
104 1 Zr 0.375 0.5 0.125 10.3058 -14.3481
105 1 Zr 0.5 0.5 2.24773e-18 15.4587 -14.3481
106 1 Zr 0.625 0.625 4.16304e-18 15.4587 -14.3481
107 1 Zr 0.625 0.5 0.125 10.3058 -14.3481
108 1 Zr 0.5 0.625 0.125 15.4587 -14.3481
109 1 Zr 0.375 0.375 0.25 10.3058 -14.3481
110 1 Zr 0.625 0.375 0.25 15.4587 -14.3481
111 1 Zr 0.375 0.625 0.25 10.3058 -14.3481
112 1 Zr 0.5 0.5 0.25 5.1529 -14.3481
113 1 Zr 0.625 0.625 0.25 10.3058 -14.3481
114 2 N 0.5 0.375 0 15.4587 -6.07189
115 2 N 0.375 0.5 0 10.3058 -6.07189
116 2 N 0.625 0.5 0 15.4587 -6.07189
117 2 N 0.5 0.625 0 10.3058 -6.07189
118 2 N 0.375 0.375 0.125 10.3058 -6.07189
119 2 N 0.625 0.375 0.125 15.4587 -6.07189
120 2 N 0.5 0.375 0.25 10.3058 -6.07189
121 2 N 0.375 0.625 0.125 10.3058 -6.07189
122 2 N 0.375 0.5 0.25 10.3058 -6.07189
123 2 N 0.5 0.5 0.125 10.3058 -6.07189
124 2 N 0.625 0.625 0.125 10.3058 -6.07189
125 2 N 0.625 0.5 0.25 10.3058 -6.07189
126 2 N 0.5 0.625 0.25 10.3058 -6.07189
127 1 Zr 0.875 0.375 3.71983e-18 15.4587 -14.3481
128 1 Zr 0.75 0.375 0.125 10.3058 -14.3481
129 1 Zr 0.75 0.5 2.56431e-18 10.3058 -14.3481
130 1 Zr 0.875 0.625 3.02335e-18 10.3058 -14.3481
131 1 Zr 0.875 0.5 0.125 7.88861e-31 -14.3481
132 1 Zr 0.75 0.625 0.125 10.3058 -14.3481
133 1 Zr 0.875 0.375 0.25 15.4587 -14.3481
134 1 Zr 0.75 0.5 0.25 10.3058 -14.3481
135 1 Zr 0.875 0.625 0.25 10.3058 -14.3481
136 2 N 0.75 0.375 0 15.4587 -6.07189
137 2 N 0.875 0.5 0 15.4587 -6.07189
138 2 N 0.75 0.625 0 15.4587 -6.07189
139 2 N 0.875 0.375 0.125 15.4587 -6.07189
140 2 N 0.75 0.375 0.25 10.3058 -6.07189
141 2 N 0.75 0.5 0.125 15.4587 -6.07189
142 2 N 0.875 0.625 0.125 10.3058 -6.07189
143 2 N 0.875 0.5 0.25 10.3058 -6.07189
144 2 N 0.75 0.625 0.25 10.3058 -6.07189
145 1 Zr 2.59597e-18 0.75 2.57351e-18 15.4587 -14.3481
146 1 Zr 0.125 0.875 3.2133e-18 15.4587 -14.3481
147 1 Zr 0.125 0.75 0.125 15.4587 -14.3481
148 1 Zr 3.2133e-18 0.875 0.125 15.4587 -14.3352
149 1 Zr 0.25 0.75 2.64345e-18 15.4587 -14.3481
150 1 Zr 0.25 0.875 0.125 5.1529 -14.3481
151 1 Zr 2.89672e-18 0.75 0.25 10.3058 -14.3481
152 1 Zr 0.125 0.875 0.25 5.1529 -14.3481
153 1 Zr 0.25 0.75 0.25 10.3058 -14.3481
154 2 N 0.125 0.75 0 15.4587 -6.07189
155 2 N 1.41828e-17 0.875 0 10.3058 -6.07189
156 2 N 0.25 0.875 0 15.4587 -6.07189
157 2 N 1.39454e-17 0.75 0.125 10.3058 -6.07189
158 2 N 0.125 0.875 0.125 15.4587 -6.07189
159 2 N 0.125 0.75 0.25 10.3058 -6.07189
160 2 N 1.40087e-17 0.875 0.25 10.3058 -6.07189
161 2 N 0.25 0.75 0.125 10.3058 -6.07189
162 2 N 0.25 0.875 0.25 10.3058 -6.07189
163 1 Zr 0.375 0.875 3.52988e-18 10.3058 -14.3481
164 1 Zr 0.375 0.75 0.125 10.3058 -14.3481
165 1 Zr 0.5 0.75 3.00752e-18 15.4587 -14.3481
166 1 Zr 0.625 0.875 1.82034e-18 10.3058 -14.3481
167 1 Zr 0.625 0.75 0.125 10.3058 -14.3481
168 1 Zr 0.5 0.875 0.125 5.1529 -14.3481
169 1 Zr 0.375 0.875 0.25 10.3058 -14.3481
170 1 Zr 0.5 0.75 0.25 15.4587 -14.3481
171 1 Zr 0.625 0.875 0.25 10.3058 -14.3481
172 2 N 0.375 0.75 0 15.4587 -6.07189
173 2 N 0.625 0.75 0 10.3058 -6.07189
174 2 N 0.5 0.875 0 10.3058 -6.07189
175 2 N 0.375 0.875 0.125 10.3058 -6.07189
176 2 N 0.375 0.75 0.25 10.3058 -6.07189
177 2 N 0.5 0.75 0.125 10.3058 -6.07189
178 2 N 0.625 0.875 0.125 10.3058 -6.07189
179 2 N 0.625 0.75 0.25 15.4587 -6.07189
180 2 N 0.5 0.875 0.25 10.3058 -6.07189
181 1 Zr 0.75 0.75 4.21053e-18 10.3058 -14.3481
182 1 Zr 0.875 0.875 2.26356e-18 15.4587 -14.3481
183 1 Zr 0.875 0.75 0.125 10.3058 -14.3481
184 1 Zr 0.75 0.875 0.125 10.3058 -14.3481
185 1 Zr 0.75 0.75 0.25 10.3058 -14.3481
186 1 Zr 0.875 0.875 0.25 5.1529 -14.3481
187 2 N 0.875 0.75 0 10.3058 -6.07189
188 2 N 0.75 0.875 0 10.3058 -6.07189
189 2 N 0.75 0.75 0.125 10.3058 -6.07189
190 2 N 0.875 0.875 0.125 10.3058 -6.07189
191 2 N 0.875 0.75 0.25 10.3058 -6.07189
192 2 N 0.75 0.875 0.25 10.3058 -6.07189
193 1 Zr 0.125 1.50376e-18 0.375 15.4587 -14.3481
194 1 Zr 1.50376e-18 0.125 0.375 15.4587 -14.3481
195 1 Zr 0.25 0.125 0.375 10.3058 -14.3481
196 1 Zr 0.125 0.25 0.375 15.4587 -14.3481
197 1 Zr 2.15275e-18 2.13029e-18 0.5 10.3058 -14.3481
198 1 Zr 0.125 0.125 0.5 1.57772e-30 -14.3481
199 1 Zr 0.125 2.64345e-18 0.625 15.4587 -14.3481
200 1 Zr 2.64345e-18 0.125 0.625 15.4587 -14.3481
201 1 Zr 0.25 2.45351e-18 0.5 10.3058 -14.3481
202 1 Zr 0.25 0.125 0.625 15.4587 -14.3481
203 1 Zr 2.45351e-18 0.25 0.5 10.3058 -14.3481
204 1 Zr 0.125 0.25 0.625 15.4587 -14.3481
205 1 Zr 0.25 0.25 0.5 10.3058 -14.3481
206 2 N 1.39929e-17 1.40154e-17 0.375 15.4587 -6.07189
207 2 N 0.125 0.125 0.375 10.3058 -6.07189
208 2 N 0.125 1.4072e-17 0.5 15.4587 -6.07189
209 2 N 1.4072e-17 0.125 0.5 15.4587 -6.07189
210 2 N 0.25 1.4072e-17 0.375 15.4587 -6.07189
211 2 N 0.25 0.125 0.5 5.1529 -6.07189
212 2 N 1.4072e-17 0.25 0.375 10.3058 -6.07189
213 2 N 0.125 0.25 0.5 5.1529 -6.07189
214 2 N 0.25 0.25 0.375 15.4587 -6.07189
215 2 N 1.40562e-17 1.40787e-17 0.625 10.3058 -6.07189
216 2 N 0.125 0.125 0.625 10.3058 -6.07189
217 2 N 0.25 9.89317e-18 0.625 10.3058 -6.07189
218 2 N 9.89317e-18 0.25 0.625 5.1529 -6.07189
219 2 N 0.25 0.25 0.625 5.1529 -6.07189
220 1 Zr 0.375 3.02335e-18 0.375 15.4587 -14.3481
221 1 Zr 0.625 2.96004e-18 0.375 10.3058 -14.3481
222 1 Zr 0.5 0.125 0.375 10.3058 -14.3481
223 1 Zr 0.375 0.25 0.375 10.3058 -14.3481
224 1 Zr 0.625 0.25 0.375 10.3058 -14.3481
225 1 Zr 0.375 0.125 0.5 10.3058 -14.3481
226 1 Zr 0.375 3.90978e-18 0.625 15.4587 -14.3481
227 1 Zr 0.5 2.26356e-18 0.5 10.3058 -14.3481
228 1 Zr 0.625 0.125 0.5 15.4587 -14.3481
229 1 Zr 0.625 2.32687e-18 0.625 10.3058 -14.3481
230 1 Zr 0.5 0.125 0.625 10.3058 -14.3481
231 1 Zr 0.375 0.25 0.625 10.3058 -14.3481
232 1 Zr 0.5 0.25 0.5 5.1529 -14.3481
233 1 Zr 0.625 0.25 0.625 10.3058 -14.3481
234 2 N 0.375 0.125 0.375 10.3058 -6.07189
235 2 N 0.375 1.70479e-17 0.5 10.3058 -6.07189
236 2 N 0.5 1.69846e-17 0.375 15.4587 -6.07189
237 2 N 0.625 0.125 0.375 10.3058 -6.07189
238 2 N 0.625 1.69846e-17 0.5 10.3058 -6.07189
239 2 N 0.5 0.125 0.5 15.4587 -6.07189
240 2 N 0.375 0.25 0.5 10.3058 -6.07189
241 2 N 0.5 0.25 0.375 15.4587 -6.07189
242 2 N 0.625 0.25 0.5 10.3058 -6.07189
243 2 N 0.375 0.125 0.625 10.3058 -6.07189
244 2 N 0.5 1.69846e-17 0.625 10.3058 -6.07189
245 2 N 0.625 0.125 0.625 15.4587 -6.07189
246 2 N 0.5 0.25 0.625 15.4587 -6.07189
247 1 Zr 0.875 3.71983e-18 0.375 15.4587 -14.3481
248 1 Zr 0.75 0.125 0.375 10.3058 -14.3481
249 1 Zr 0.875 0.25 0.375 10.3058 -14.3481
250 1 Zr 0.75 2.58014e-18 0.5 15.4587 -14.3481
251 1 Zr 0.875 0.125 0.5 7.88861e-31 -14.3481
252 1 Zr 0.875 2.13692e-18 0.625 15.4587 -14.3481
253 1 Zr 0.75 0.125 0.625 15.4587 -14.3481
254 1 Zr 0.75 0.25 0.5 10.3058 -14.3481
255 1 Zr 0.875 0.25 0.625 15.4587 -14.3481
256 2 N 0.75 1.70479e-17 0.375 10.3058 -6.07189
257 2 N 0.875 0.125 0.375 15.4587 -6.07189
258 2 N 0.875 1.73645e-17 0.5 15.4587 -6.07189
259 2 N 0.75 0.125 0.5 15.4587 -6.07189
260 2 N 0.75 0.25 0.375 15.4587 -6.07189
261 2 N 0.875 0.25 0.5 10.3058 -6.07189
262 2 N 0.75 1.69846e-17 0.625 10.3058 -6.07189
263 2 N 0.875 0.125 0.625 5.1529 -6.07189
264 2 N 0.75 0.25 0.625 10.3058 -6.07189
265 1 Zr 2.64345e-18 0.375 0.375 10.3058 -14.3481
266 1 Zr 0.25 0.375 0.375 15.4587 -14.3481
267 1 Zr 0.125 0.5 0.375 15.4587 -14.3481
268 1 Zr 2.07361e-18 0.625 0.375 15.4587 -14.3481
269 1 Zr 0.25 0.625 0.375 15.4587 -14.3481
270 1 Zr 0.125 0.375 0.5 10.3058 -14.3481
271 1 Zr 3.02335e-18 0.375 0.625 10.3058 -14.3481
272 1 Zr 0.25 0.375 0.625 15.4587 -14.3481
273 1 Zr 2.13692e-18 0.5 0.5 10.3058 -14.3481
274 1 Zr 0.125 0.625 0.5 10.3058 -14.3481
275 1 Zr 0.125 0.5 0.625 15.4587 -14.3481
276 1 Zr 1.75703e-18 0.625 0.625 15.4587 -14.3481
277 1 Zr 0.25 0.5 0.5 5.1529 -14.3481
278 1 Zr 0.25 0.625 0.625 10.3058 -14.3481
279 2 N 0.125 0.375 0.375 15.4587 -6.07189
280 2 N 1.70479e-17 0.375 0.5 10.3058 -6.07189
281 2 N 0.25 0.375 0.5 10.3058 -6.07189
282 2 N 1.70479e-17 0.5 0.375 10.3058 -6.07189
283 2 N 0.125 0.625 0.375 10.3058 -6.07189
284 2 N 0.125 0.5 0.5 10.3058 -6.07189
285 2 N 1.99605e-17 0.625 0.5 10.3058 -6.07189
286 2 N 0.25 0.5 0.375 10.3058 -6.07189
287 2 N 0.25 0.625 0.5 10.3058 -6.07189
288 2 N 0.125 0.375 0.625 10.3058 -6.07189
289 2 N 1.69846e-17 0.5 0.625 10.3058 -6.07189
290 2 N 0.125 0.625 0.625 15.4587 -6.07189
291 2 N 0.25 0.5 0.625 10.3058 -6.07189
292 1 Zr 0.5 0.375 0.375 10.3058 -14.3481
293 1 Zr 0.375 0.5 0.375 10.3058 -14.3481
294 1 Zr 0.625 0.5 0.375 15.4587 -14.3481
295 1 Zr 0.5 0.625 0.375 15.4587 -14.3481
296 1 Zr 0.375 0.375 0.5 10.3058 -14.3481
297 1 Zr 0.625 0.375 0.5 10.3058 -14.3481
298 1 Zr 0.5 0.375 0.625 10.3058 -14.3481
299 1 Zr 0.375 0.625 0.5 10.3058 -14.3481
300 1 Zr 0.375 0.5 0.625 15.4587 -14.3481
301 1 Zr 0.5 0.5 0.5 10.3058 -14.3481
302 1 Zr 0.625 0.625 0.5 10.3058 -14.3481
303 1 Zr 0.625 0.5 0.625 15.4587 -14.3481
304 1 Zr 0.5 0.625 0.625 15.4587 -14.3481
305 2 N 0.375 0.375 0.375 10.3058 -6.07189
306 2 N 0.625 0.375 0.375 15.4587 -6.07189
307 2 N 0.5 0.375 0.5 15.4587 -6.07189
308 2 N 0.375 0.625 0.375 15.4587 -6.07189
309 2 N 0.375 0.5 0.5 10.3058 -6.07189
310 2 N 0.5 0.5 0.375 15.4587 -6.07189
311 2 N 0.625 0.625 0.375 10.3058 -6.07189
312 2 N 0.625 0.5 0.5 10.3058 -6.07189
313 2 N 0.5 0.625 0.5 10.3058 -6.07189
314 2 N 0.375 0.375 0.625 10.3058 -6.07189
315 2 N 0.625 0.375 0.625 15.4587 -6.07189
316 2 N 0.375 0.625 0.625 10.3058 -6.07189
317 2 N 0.5 0.5 0.625 10.3058 -6.07189
318 2 N 0.625 0.625 0.625 15.4587 -6.07189
319 1 Zr 0.75 0.375 0.375 15.4587 -14.3481
320 1 Zr 0.875 0.5 0.375 10.3058 -14.3481
321 1 Zr 0.75 0.625 0.375 10.3058 -14.3481
322 1 Zr 0.875 0.375 0.5 5.1529 -14.3481
323 1 Zr 0.75 0.375 0.625 15.4587 -14.3481
324 1 Zr 0.75 0.5 0.5 10.3058 -14.3481
325 1 Zr 0.875 0.625 0.5 15.4587 -14.3481
326 1 Zr 0.875 0.5 0.625 15.4587 -14.3481
327 1 Zr 0.75 0.625 0.625 15.4587 -14.3481
328 2 N 0.875 0.375 0.375 15.4587 -6.07189
329 2 N 0.75 0.375 0.5 10.3058 -6.07189
330 2 N 0.75 0.5 0.375 10.3058 -6.07189
331 2 N 0.875 0.625 0.375 10.3058 -6.07189
332 2 N 0.875 0.5 0.5 10.3058 -6.07189
333 2 N 0.75 0.625 0.5 10.3058 -6.07189
334 2 N 0.875 0.375 0.625 10.3058 -6.07189
335 2 N 0.75 0.5 0.625 10.3058 -6.07189
336 2 N 0.875 0.625 0.625 10.3058 -6.07189
337 1 Zr 0.125 0.75 0.375 10.3058 -14.3481
338 1 Zr 3.52988e-18 0.875 0.375 10.3058 -14.3481
339 1 Zr 0.25 0.875 0.375 10.3058 -14.3481
340 1 Zr 2.8334e-18 0.75 0.5 10.3058 -14.3481
341 1 Zr 0.125 0.875 0.5 5.1529 -14.3481
342 1 Zr 0.125 0.75 0.625 10.3058 -14.3481
343 1 Zr 2.13692e-18 0.875 0.625 10.3058 -14.3481
344 1 Zr 0.25 0.75 0.5 10.3058 -14.3481
345 1 Zr 0.25 0.875 0.625 10.3058 -14.3481
346 2 N 1.70479e-17 0.75 0.375 10.3058 -6.07189
347 2 N 0.125 0.875 0.375 10.3058 -6.07189
348 2 N 0.125 0.75 0.5 15.4587 -6.07189
349 2 N 1.72379e-17 0.875 0.5 10.3058 -6.07189
350 2 N 0.25 0.75 0.375 10.3058 -6.07189
351 2 N 0.25 0.875 0.5 10.3058 -6.07189
352 2 N 1.69846e-17 0.75 0.625 10.3058 -6.07189
353 2 N 0.125 0.875 0.625 10.3058 -6.07189
354 2 N 0.25 0.75 0.625 10.3058 -6.07189
355 1 Zr 0.375 0.75 0.375 10.3058 -14.3481
356 1 Zr 0.625 0.75 0.375 10.3058 -14.3481
357 1 Zr 0.5 0.875 0.375 5.1529 -14.3481
358 1 Zr 0.375 0.875 0.5 10.3058 -14.3481
359 1 Zr 0.375 0.75 0.625 10.3058 -14.3481
360 1 Zr 0.5 0.75 0.5 10.3058 -14.3481
361 1 Zr 0.625 0.875 0.5 10.3058 -14.3481
362 1 Zr 0.625 0.75 0.625 10.3058 -14.3481
363 1 Zr 0.5 0.875 0.625 10.3058 -14.3481
364 2 N 0.375 0.875 0.375 10.3058 -6.07189
365 2 N 0.375 0.75 0.5 10.3058 -6.07189
366 2 N 0.5 0.75 0.375 15.4587 -6.07189
367 2 N 0.625 0.875 0.375 10.3058 -6.07189
368 2 N 0.625 0.75 0.5 15.4587 -6.07189
369 2 N 0.5 0.875 0.5 10.3058 -6.07189
370 2 N 0.375 0.875 0.625 10.3058 -6.07189
371 2 N 0.5 0.75 0.625 10.3058 -6.07189
372 2 N 0.625 0.875 0.625 10.3058 -6.07189
373 1 Zr 0.875 0.75 0.375 15.4587 -14.3481
374 1 Zr 0.75 0.875 0.375 15.4587 -14.3481
375 1 Zr 0.75 0.75 0.5 15.4587 -14.3481
376 1 Zr 0.875 0.875 0.5 10.3058 -14.3481
377 1 Zr 0.875 0.75 0.625 10.3058 -14.3481
378 1 Zr 0.75 0.875 0.625 10.3058 -14.3481
379 2 N 0.75 0.75 0.375 10.3058 -6.07189
380 2 N 0.875 0.875 0.375 10.3058 -6.07189
381 2 N 0.875 0.75 0.5 10.3058 -6.07189
382 2 N 0.75 0.875 0.5 10.3058 -6.07189
383 2 N 0.75 0.75 0.625 10.3058 -6.07189
384 2 N 0.875 0.875 0.625 10.3058 -6.07189
385 1 Zr 2.59597e-18 2.57351e-18 0.75 15.4587 -14.3481
386 1 Zr 0.125 0.125 0.75 10.3058 -14.3481
387 1 Zr 0.125 2.26356e-18 0.875 10.3058 -14.3481
388 1 Zr 2.26356e-18 0.125 0.875 10.3058 -14.3481
389 1 Zr 0.25 2.64345e-18 0.75 10.3058 -14.3481
390 1 Zr 0.25 0.125 0.875 5.1529 -14.3481
391 1 Zr 2.89672e-18 0.25 0.75 10.3058 -14.3481
392 1 Zr 0.125 0.25 0.875 5.1529 -14.3481
393 1 Zr 0.25 0.25 0.75 15.4587 -14.3481
394 2 N 0.125 1.75544e-17 0.75 15.4587 -6.07189
395 2 N 1.44519e-17 0.125 0.75 15.4587 -6.07189
396 2 N 0.25 0.125 0.75 5.1529 -6.07189
397 2 N 0.125 0.25 0.75 5.1529 -6.07189
398 2 N 2.11476e-17 2.11701e-17 0.875 15.4587 -6.07189
399 2 N 0.125 0.125 0.875 15.4587 -6.07189
400 2 N 0.25 1.09062e-17 0.875 10.3058 -6.07189
401 2 N 1.09062e-17 0.25 0.875 10.3058 -6.07189
402 2 N 0.25 0.25 0.875 15.4587 -6.07189
403 1 Zr 0.375 0.125 0.75 10.3058 -14.3481
404 1 Zr 0.375 2.45351e-18 0.875 10.3058 -14.3481
405 1 Zr 0.5 3.02335e-18 0.75 10.3058 -14.3481
406 1 Zr 0.625 0.125 0.75 15.4587 -14.3481
407 1 Zr 0.625 2.77009e-18 0.875 10.3058 -14.3481
408 1 Zr 0.5 0.125 0.875 1.57772e-30 -14.3481
409 1 Zr 0.375 0.25 0.875 10.3058 -14.3481
410 1 Zr 0.5 0.25 0.75 15.4587 -14.3481
411 1 Zr 0.625 0.25 0.875 10.3058 -14.3481
412 2 N 0.375 1.75544e-17 0.75 10.3058 -6.07189
413 2 N 0.625 1.78143e-17 0.75 10.3058 -6.07189
414 2 N 0.5 0.125 0.75 15.4587 -6.07189
415 2 N 0.375 0.25 0.75 10.3058 -6.07189
416 2 N 0.625 0.25 0.75 10.3058 -6.07189
417 2 N 0.375 0.125 0.875 15.4587 -6.07189
418 2 N 0.5 1.73012e-17 0.875 15.4587 -6.07189
419 2 N 0.625 0.125 0.875 10.3058 -6.07189
420 2 N 0.5 0.25 0.875 15.4587 -6.07189
421 1 Zr 0.75 3.33993e-18 0.75 10.3058 -14.3481
422 1 Zr 0.875 0.125 0.75 10.3058 -14.3481
423 1 Zr 0.875 2.26356e-18 0.875 10.3058 -14.3481
424 1 Zr 0.75 0.125 0.875 10.3058 -14.3481
425 1 Zr 0.75 0.25 0.75 15.4587 -14.3481
426 1 Zr 0.875 0.25 0.875 5.1529 -14.3481
427 2 N 0.875 2.14234e-17 0.75 10.3058 -6.07189
428 2 N 0.75 0.125 0.75 10.3058 -6.07189
429 2 N 0.875 0.25 0.75 10.3058 -6.07189
430 2 N 0.75 1.81876e-17 0.875 10.3058 -6.07189
431 2 N 0.875 0.125 0.875 10.3058 -6.07189
432 2 N 0.75 0.25 0.875 15.4587 -6.07189
433 1 Zr 0.125 0.375 0.75 10.3058 -14.3481
434 1 Zr 2.45351e-18 0.375 0.875 10.3058 -14.3481
435 1 Zr 0.25 0.375 0.875 10.3058 -14.3481
436 1 Zr 3.02335e-18 0.5 0.75 15.4587 -14.3481
437 1 Zr 0.125 0.625 0.75 15.4587 -14.3481
438 1 Zr 0.125 0.5 0.875 1.57772e-30 -14.3481
439 1 Zr 3.40325e-18 0.625 0.875 15.4587 -14.3481
440 1 Zr 0.25 0.5 0.75 15.4587 -14.3481
441 1 Zr 0.25 0.625 0.875 10.3058 -14.3481
442 2 N 1.75544e-17 0.375 0.75 15.4587 -6.07189
443 2 N 0.25 0.375 0.75 10.3058 -6.07189
444 2 N 0.125 0.5 0.75 15.4587 -6.07189
445 2 N 1.36988e-17 0.625 0.75 15.4587 -6.07189
446 2 N 0.25 0.625 0.75 10.3058 -6.07189
447 2 N 0.125 0.375 0.875 10.3058 -6.07189
448 2 N 1.71112e-17 0.5 0.875 10.3058 -6.07189
449 2 N 0.125 0.625 0.875 15.4587 -6.07189
450 2 N 0.25 0.5 0.875 15.4587 -6.07189
451 1 Zr 0.375 0.375 0.75 10.3058 -14.3481
452 1 Zr 0.625 0.375 0.75 10.3058 -14.3481
453 1 Zr 0.5 0.375 0.875 10.3058 -14.3481
454 1 Zr 0.375 0.625 0.75 15.4587 -14.3481
455 1 Zr 0.375 0.5 0.875 15.4587 -14.3481
456 1 Zr 0.5 0.5 0.75 10.3058 -14.3481
457 1 Zr 0.625 0.625 0.75 15.4587 -14.3481
458 1 Zr 0.625 0.5 0.875 10.3058 -14.3481
459 1 Zr 0.5 0.625 0.875 10.3058 -14.3481
460 2 N 0.5 0.375 0.75 10.3058 -6.07189
461 2 N 0.375 0.5 0.75 10.3058 -6.07189
462 2 N 0.625 0.5 0.75 10.3058 -6.07189
463 2 N 0.5 0.625 0.75 10.3058 -6.07189
464 2 N 0.375 0.375 0.875 15.4587 -6.07189
465 2 N 0.625 0.375 0.875 10.3058 -6.07189
466 2 N 0.375 0.625 0.875 15.4587 -6.07189
467 2 N 0.5 0.5 0.875 15.4587 -6.07189
468 2 N 0.625 0.625 0.875 10.3058 -6.07189
469 1 Zr 0.875 0.375 0.75 10.3058 -14.3481
470 1 Zr 0.75 0.375 0.875 10.3058 -14.3481
471 1 Zr 0.75 0.5 0.75 10.3058 -14.3481
472 1 Zr 0.875 0.625 0.75 10.3058 -14.3481
473 1 Zr 0.875 0.5 0.875 5.1529 -14.3481
474 1 Zr 0.75 0.625 0.875 10.3058 -14.3481
475 2 N 0.75 0.375 0.75 10.3058 -6.07189
476 2 N 0.875 0.5 0.75 15.4587 -6.07189
477 2 N 0.75 0.625 0.75 10.3058 -6.07189
478 2 N 0.875 0.375 0.875 10.3058 -6.07189
479 2 N 0.75 0.5 0.875 10.3058 -6.07189
480 2 N 0.875 0.625 0.875 15.4587 -6.07189
481 1 Zr 3.33993e-18 0.75 0.75 15.4587 -14.3481
482 1 Zr 0.125 0.875 0.75 15.4587 -14.3481
483 1 Zr 0.125 0.75 0.875 10.3058 -14.3481
484 1 Zr 2.13692e-18 0.875 0.875 10.3058 -14.3481
485 1 Zr 0.25 0.75 0.75 10.3058 -14.3481
486 1 Zr 0.25 0.875 0.875 5.1529 -14.3481
487 2 N 0.125 0.75 0.75 10.3058 -6.07189
488 2 N 1.73078e-17 0.875 0.75 10.3058 -6.07189
489 2 N 0.25 0.875 0.75 10.3058 -6.07189
490 2 N 1.81876e-17 0.75 0.875 10.3058 -6.07189
491 2 N 0.125 0.875 0.875 10.3058 -6.07189
492 2 N 0.25 0.75 0.875 15.4587 -6.07189
493 1 Zr 0.375 0.875 0.75 10.3058 -14.3481
494 1 Zr 0.375 0.75 0.875 10.3058 -14.3481
495 1 Zr 0.5 0.75 0.75 15.4587 -14.3481
496 1 Zr 0.625 0.875 0.75 10.3058 -14.3481
497 1 Zr 0.625 0.75 0.875 15.4587 -14.3481
498 1 Zr 0.5 0.875 0.875 10.3058 -14.3481
499 2 N 0.375 0.75 0.75 15.4587 -6.07189
500 2 N 0.625 0.75 0.75 10.3058 -6.07189
501 2 N 0.5 0.875 0.75 10.3058 -6.07189
502 2 N 0.375 0.875 0.875 10.3058 -6.07189
503 2 N 0.5 0.75 0.875 10.3058 -6.07189
504 2 N 0.625 0.875 0.875 10.3058 -6.07189
19 2 N 0.875 0.875 0.875 10.3058 -6.07189
505 1 Zr 0.75 0.75 0.75 15.4587 -14.3481
506 1 Zr 0.875 0.875 0.75 10.3058 -14.3481
507 1 Zr 0.875 0.75 0.875 10.3058 -14.3481
508 1 Zr 0.75 0.875 0.875 10.3058 -14.3481
509 2 N 0.875 0.75 0.75 10.3058 -6.07189
510 2 N 0.75 0.875 0.75 10.3058 -6.07189
511 2 N 0.75 0.75 0.875 15.4587 -6.07189
