ITEM: TIMESTEP
482
ITEM: NUMBER OF ATOMS
511
ITEM: BOX BOUNDS pp pp pp
0.0000000000000000e+00 1.8160000000000000e+01
0.0000000000000000e+00 1.8160000000000000e+01
0.0000000000000000e+00 1.8160000000000000e+01
ITEM: ATOMS id type element xs ys zs c_csym c_eng
1 1 Zr 0.976198 0.0331755 0.948806 9.85199 -15.7511
2 1 Zr 0.125492 0.143946 0.0298218 8.26375 -23.6059
3 1 Zr 0.198002 0.00839362 0.158018 11.9517 -19.5958
4 1 Zr 0.980107 0.17474 0.17089 11.6849 -16.566
5 1 Zr 0.266487 0.978318 0.97524 8.94033 -15.7013
6 1 Zr 0.210503 0.0965739 0.088254 9.83077 -16.4057
7 1 Zr 0.0232417 0.185065 0.0588169 8.94035 -16.308
8 1 Zr 0.216277 0.297702 0.0869952 12.5545 -16.7703
9 1 Zr 0.177839 0.233325 0.98664 10.9398 -19.8783
10 1 Zr 0.0294815 0.933859 0.302879 13.5084 -19.794
11 1 Zr 0.135424 0.161113 0.237407 7.91391 -14.1219
12 1 Zr 0.28037 0.0319309 0.249385 8.4667 -18.4065
13 1 Zr 0.0194729 0.261657 0.260189 10.2925 -14.9537
14 1 Zr 0.289573 0.246017 0.176984 11.2481 -18.3363
15 2 N 0.137682 0.994711 0.962652 7.30173 -5.73507
16 2 N 0.967074 0.180868 0.993118 10.4995 -5.91895
17 2 N 0.265168 0.0783294 0.965576 9.10408 -5.44089
18 2 N 0.0658859 0.295602 0.011819 9.57891 -5.18926
20 2 N 0.134141 0.205924 0.139966 8.44855 -5.29642
21 2 N 0.125791 0.000557689 0.18923 8.32253 -8.15173
22 2 N 0.0329159 0.103276 0.257581 9.02096 -5.43781
23 2 N 0.347042 -0.00794397 0.153268 8.2143 -6.80631
24 2 N 0.251117 0.193564 0.235305 7.17097 -6.74844
25 2 N 0.958083 0.302839 0.141902 10.5753 -7.44357
26 2 N 0.117151 0.272033 0.275627 10.097 -7.28767
27 2 N 0.277089 0.146023 0.0998911 5.17343 -6.84249
28 1 Zr 0.417025 0.0975231 0.0297928 9.89286 -16.7761
29 1 Zr 0.406179 0.988099 0.0912536 9.34484 -16.6627
30 1 Zr 0.5053 0.97774 0.944441 8.72273 -14.1469
31 1 Zr 0.62801 0.0992623 0.0245364 12.0228 -14.8445
32 1 Zr 0.597593 -0.00948531 0.0907351 9.07729 -16.5399
33 1 Zr 0.520024 0.0921292 0.151971 11.3058 -12.8792
34 1 Zr 0.392323 0.209116 0.0994448 11.3058 -14.8548
35 1 Zr 0.477671 0.24483 0.977326 7.23405 -14.3657
36 1 Zr 0.603167 0.268522 0.113785 7.45091 -13.7193
37 1 Zr 0.412584 0.0552063 0.233111 8.80069 -15.6857
38 1 Zr 0.511051 0.975707 0.270414 9.00092 -16.3605
39 1 Zr 0.641867 0.106574 0.226465 13.2317 -13.4224
40 1 Zr 0.508129 0.255217 0.227065 9.44516 -13.6228
41 2 N 0.388005 0.993062 0.948826 6.54074 -6.0433
42 2 N 0.619684 0.988551 0.951719 8.4533 -5.78212
43 2 N 0.490426 0.107349 0.978556 10.1345 -6.75692
44 2 N 0.36807 0.243841 0.988668 8.55305 -6.11415
45 2 N 0.599485 0.240664 0.991339 5.64789 -5.81721
46 2 N 0.423739 0.113959 0.162815 8.53699 -7.1905
47 2 N 0.352757 0.961333 0.306721 7.20632 -6.34831
48 2 N 0.521328 0.979467 0.137243 12.1056 -7.38575
49 2 N 0.599754 0.155852 0.131014 8.9907 -6.12791
50 2 N 0.599825 0.00559958 0.269165 9.34203 -6.25861
51 2 N 0.52585 0.150894 0.264109 6.78867 -5.68938
52 2 N 0.407494 0.242774 0.275779 11.792 -5.45923
53 2 N 0.483957 0.258903 0.119762 7.16731 -6.32301
54 2 N 0.629239 0.27133 0.257272 5.98057 -5.472
55 1 Zr 0.786248 0.00209597 0.953606 8.01219 -19.2636
56 1 Zr 0.847616 0.156495 0.0144656 8.81894 -16.4884
57 1 Zr 0.833457 0.996065 0.135895 8.8951 -19.5569
58 1 Zr 0.848212 0.10657 0.12273 10.4412 -16.2182
59 1 Zr 0.724442 0.234825 0.987693 9.36862 -14.2498
60 1 Zr 0.863603 0.272652 0.124123 6.22658 -15.4363
61 1 Zr 0.742553 -0.00252773 0.185761 14.6648 -19.6748
62 1 Zr 0.883059 0.107134 0.262611 8.24297 -17.5795
63 1 Zr 0.770917 0.247473 0.224475 14.0824 -14.4589
64 2 N 0.954408 0.0547502 0.0641756 10.7962 -3.37757
65 2 N 0.723497 0.100335 0.991461 6.67091 -5.92743
66 2 N 0.837365 0.243669 0.000854891 9.42847 -7.44039
67 2 N 0.689354 0.0367675 0.14729 13.354 -8.95399
68 2 N 0.899874 0.137389 0.18311 14.2148 -10.373
69 2 N 0.886696 0.965175 0.18127 8.20125 -8.67584
70 2 N 0.743334 0.15363 0.229335 12.6122 -6.04187
71 2 N 0.721852 0.249188 0.104104 9.25248 -5.56828
72 2 N 0.873974 0.25645 0.293034 7.34086 -5.34081
73 1 Zr 0.0703418 0.407061 0.0316386 9.22978 -14.3182
74 1 Zr 0.0186089 0.365033 0.140551 10.7023 -16.7411
75 1 Zr 0.261147 0.410645 0.128341 8.4073 -13.1266
76 1 Zr 0.947147 0.478488 0.0240125 8.87437 -16.5623
77 1 Zr 0.04041 0.547641 0.0339362 15.556 -17.1095
78 1 Zr 0.151693 0.5033 0.111697 7.33528 -14.1849
79 1 Zr 0.0325994 0.607687 0.144785 12.6258 -16.6458
80 1 Zr 0.250014 0.488073 5.4189e-05 6.95434 -14.1627
81 1 Zr 0.263116 0.636037 0.12021 5.85997 -13.8034
82 1 Zr 0.107311 0.356928 0.229135 13.8366 -14.7142
83 1 Zr -0.00666704 0.503979 0.270485 8.7067 -14.7706
84 1 Zr 0.12716 0.602175 0.240965 8.20708 -14.6575
85 1 Zr 0.243394 0.501774 0.239757 9.48651 -14.322
86 2 N 0.958461 0.40015 0.994356 10.1082 -7.6966
87 2 N 0.244134 0.370341 0.980118 6.26635 -5.50537
88 2 N 0.114495 0.516552 0.000243627 9.66015 -7.35209
89 2 N 0.969582 0.636961 0.983177 13.3617 -6.72483
90 2 N 0.264775 0.604694 0.988406 8.63651 -5.59384
91 2 N 0.169895 0.368545 0.112083 9.94987 -7.58806
92 2 N 0.984703 0.374715 0.289517 7.83243 -5.87206
93 2 N 0.239095 0.37475 0.261837 7.03341 -5.15611
94 2 N -0.00842439 0.478618 0.169425 9.94192 -5.73952
95 2 N 0.156629 0.613124 0.10903 8.71258 -6.19818
96 2 N 0.130148 0.492628 0.249908 8.33568 -5.78665
97 2 N 1.00154 0.630735 0.305897 9.87747 -4.81698
98 2 N 0.263905 0.511566 0.118081 7.29872 -7.20517
99 2 N 0.271232 0.62154 0.247553 7.07217 -5.81628
100 1 Zr 0.365728 0.362989 0.981118 5.78548 -13.9967
101 1 Zr 0.608763 0.370247 0.00215973 7.50954 -14.205
102 1 Zr 0.470344 0.379028 0.136732 7.58145 -14.451
103 1 Zr 0.389782 0.614401 0.988594 7.32752 -14.1775
104 1 Zr 0.376862 0.497742 0.136019 6.72553 -13.7337
105 1 Zr 0.488774 0.497021 0.987371 6.56951 -13.97
106 1 Zr 0.623339 0.619726 0.987295 6.37451 -14.6345
107 1 Zr 0.603986 0.503764 0.140062 9.03658 -13.8575
108 1 Zr 0.50713 0.620831 0.136685 5.61153 -14.2611
109 1 Zr 0.359195 0.341698 0.226304 11.7343 -15.4746
110 1 Zr 0.63438 0.379817 0.236473 8.45609 -14.2387
111 1 Zr 0.385455 0.61183 0.23336 7.8074 -14.1972
112 1 Zr 0.493582 0.492743 0.24075 6.16026 -14.3096
113 1 Zr 0.625408 0.625095 0.246517 8.43766 -14.3334
114 2 N 0.484727 0.377596 0.00845299 9.20251 -5.83986
115 2 N 0.367145 0.48582 0.999635 7.17612 -6.06455
116 2 N 0.605744 0.492633 1.0023 9.99426 -6.08764
117 2 N 0.504211 0.615256 1.00044 6.76305 -6.31639
118 2 N 0.352507 0.358388 0.103132 9.66545 -5.98154
119 2 N 0.605712 0.384971 0.122725 6.60374 -6.37723
120 2 N 0.498863 0.376723 0.265785 7.00518 -5.68157
121 2 N 0.392613 0.608542 0.113467 10.6211 -6.54705
122 2 N 0.370361 0.484828 0.256419 6.57415 -5.87678
123 2 N 0.489997 0.49053 0.121879 7.79899 -6.49108
124 2 N 0.62067 0.615012 0.112586 6.62068 -6.31588
125 2 N 0.627009 0.498421 0.267171 8.84271 -5.93339
126 2 N 0.507765 0.608778 0.257334 6.8795 -6.40171
127 1 Zr 0.845559 0.371173 0.0144205 8.5084 -14.6095
128 1 Zr 0.726844 0.372535 0.117023 7.30829 -14.1778
129 1 Zr 0.726818 0.497557 0.991339 3.96197 -13.8013
130 1 Zr 0.864716 0.622348 0.010294 5.57356 -13.5681
131 1 Zr 0.879402 0.490093 0.124674 8.06679 -14.1445
132 1 Zr 0.740254 0.612381 0.13555 7.00475 -13.7718
133 1 Zr 0.872206 0.37016 0.252657 9.92176 -13.6371
134 1 Zr 0.743782 0.485649 0.238653 9.39346 -14.2492
135 1 Zr 0.883284 0.605718 0.273707 5.88422 -14.4919
136 2 N 0.72806 0.371045 0.999122 11.0079 -6.19396
137 2 N 0.837861 0.501681 0.979639 8.6649 -6.44234
138 2 N 0.736901 0.626155 1.00286 4.16653 -6.12996
139 2 N 0.835147 0.391279 0.145172 10.6994 -6.31278
140 2 N 0.752529 0.367056 0.277932 8.21648 -5.724
141 2 N 0.721686 0.493147 0.115913 5.22815 -5.85316
142 2 N 0.846466 0.582496 0.136461 8.47004 -6.36591
143 2 N 0.859115 0.483827 0.26642 6.71429 -6.15166
144 2 N 0.748794 0.602044 0.259237 3.87407 -6.10374
145 1 Zr 0.00829637 0.835421 0.0497651 9.7624 -19.7453
146 1 Zr 0.114246 0.885657 0.0076467 12.7365 -16.5299
147 1 Zr 0.140637 0.730786 0.107614 6.25768 -13.2673
148 1 Zr 0.988181 0.817343 0.166737 14.2351 -15.9888
149 1 Zr 0.295451 0.729732 0.01282 7.71881 -13.552
150 1 Zr 0.216174 0.924685 0.080097 5.87998 -19.0515
151 1 Zr 0.0601079 0.73536 0.243068 7.1504 -17.0326
152 1 Zr 0.151517 0.896382 0.229758 11.1396 -13.4625
153 1 Zr 0.243666 0.753424 0.251255 8.50167 -13.9495
154 2 N 0.181548 0.744804 0.00529254 7.83401 -6.02479
155 2 N 0.966023 0.946118 0.970493 10.9422 -8.26828
156 2 N 0.304642 0.847301 0.00897704 8.84802 -5.87322
157 2 N 0.977783 0.676182 0.150342 14.1475 -6.43417
158 2 N 0.138559 0.84264 0.131624 10.9364 -5.62354
159 2 N 0.143793 0.720293 0.217852 12.0051 -7.5914
160 2 N 0.041283 0.886182 0.236944 13.3674 -7.96939
161 2 N 0.277672 0.746704 0.12691 8.24616 -6.08296
162 2 N 0.266981 0.860087 0.238313 10.5028 -5.82054
163 1 Zr 0.397262 0.888605 0.015849 11.1569 -14.3142
164 1 Zr 0.388604 0.722708 0.133025 6.16492 -13.8422
165 1 Zr 0.527201 0.735288 0.986047 10.2192 -14.117
166 1 Zr 0.655479 0.889467 0.0335361 9.37135 -14.6151
167 1 Zr 0.634293 0.734907 0.14332 6.72414 -13.8146
168 1 Zr 0.514853 0.858905 0.126663 6.7322 -13.8645
169 1 Zr 0.376589 0.859333 0.26983 4.60415 -13.6868
170 1 Zr 0.508883 0.728885 0.242024 9.26306 -14.2109
171 1 Zr 0.71428 0.886874 0.199317 10.1552 -13.9632
172 2 N 0.404931 0.73455 0.990697 7.4901 -6.17416
173 2 N 0.649393 0.760853 0.00272347 7.26741 -5.69125
174 2 N 0.514593 0.85991 0.989992 8.08451 -5.40726
175 2 N 0.401907 0.839206 0.131014 8.23474 -5.2133
176 2 N 0.385916 0.733881 0.252989 4.31288 -5.84081
177 2 N 0.519322 0.741369 0.106046 7.48408 -6.01434
178 2 N 0.645861 0.851681 0.148636 12.4756 -6.64707
179 2 N 0.624571 0.741989 0.262419 6.07308 -6.0261
180 2 N 0.507637 0.847796 0.242252 8.04434 -5.58857
181 1 Zr 0.76614 0.740684 -0.00273604 10.0616 -14.6905
182 1 Zr 0.911485 0.8849 0.00116741 10.9468 -19.0814
183 1 Zr 0.866585 0.705806 0.164888 5.36446 -13.355
184 1 Zr 0.818413 0.938884 0.0449316 12.5099 -20.047
185 1 Zr 0.745305 0.723963 0.266644 7.24086 -13.819
186 1 Zr 0.853816 0.867426 0.247792 12.6571 -13.9482
187 2 N 0.875316 0.72694 0.0471817 10.562 -5.20709
188 2 N 0.758167 0.885034 0.0488493 7.93742 -7.84762
189 2 N 0.748687 0.736176 0.143235 8.09371 -5.6258
190 2 N 0.898424 0.817355 0.174676 9.12472 -7.20015
191 2 N 0.868365 0.716323 0.284433 6.98884 -5.50732
192 2 N 0.750532 0.839227 0.267117 11.6274 -7.57599
193 1 Zr 0.113907 0.0309621 0.308887 7.06669 -14.8028
194 1 Zr 0.971485 0.141524 0.354468 11.178 -14.1556
195 1 Zr 0.248191 0.132998 0.335736 8.66296 -14.514
196 1 Zr 0.140815 0.267167 0.388619 6.9132 -13.9722
197 1 Zr -0.00358907 0.00997799 0.503848 6.19648 -13.7754
198 1 Zr 0.141538 0.132419 0.510714 6.73801 -14.4857
199 1 Zr 0.123772 1.01312 0.605735 6.12232 -13.7451
200 1 Zr -0.00326159 0.160223 0.632341 8.2225 -14.1206
201 1 Zr 0.24078 0.99179 0.481286 7.59474 -15.3658
202 1 Zr 0.249975 0.12048 0.613517 7.09011 -15.0359
203 1 Zr 0.99821 0.260622 0.512463 3.22786 -14.4327
204 1 Zr 0.110623 0.258436 0.626236 6.41114 -14.3303
205 1 Zr 0.24391 0.247975 0.502935 4.42294 -14.0611
206 2 N -0.00214551 0.0354011 0.3967 9.52405 -5.39681
207 2 N 0.13987 0.141375 0.379937 6.78716 -5.23456
208 2 N 0.123743 0.0198321 0.493359 6.95574 -6.24849
209 2 N 1.00304 0.135245 0.5188 6.77935 -5.39811
210 2 N 0.206568 -0.00240739 0.351099 8.12949 -5.66141
211 2 N 0.26473 0.123178 0.489505 6.75272 -5.65531
212 2 N 0.00114621 0.24495 0.387664 5.45475 -5.91932
213 2 N 0.122537 0.244864 0.50585 3.55997 -6.39774
214 2 N 0.261047 0.251133 0.38793 7.79073 -5.68533
215 2 N 0.0121836 0.0122675 0.623339 10.7258 -5.48372
216 2 N 0.120259 0.12935 0.649147 7.31852 -7.22024
217 2 N 0.243219 0.989942 0.606889 5.42995 -5.86578
218 2 N 0.991412 0.278147 0.630208 4.60491 -6.61405
219 2 N 0.239624 0.249492 0.627697 10.8649 -5.91146
220 1 Zr 0.342178 0.0212733 0.386777 9.0034 -14.7384
221 1 Zr 0.635087 0.00910568 0.379262 4.07396 -14.2455
222 1 Zr 0.510778 0.126256 0.367815 8.38279 -13.8899
223 1 Zr 0.39265 0.244213 0.382455 7.62318 -13.9763
224 1 Zr 0.634698 0.253063 0.376759 7.33332 -14.1057
225 1 Zr 0.383871 0.131819 0.483795 6.32328 -14.4135
226 1 Zr 0.364466 0.0293175 0.60975 8.43124 -14.3054
227 1 Zr 0.512967 0.0110211 0.505932 11.1711 -14.0575
228 1 Zr 0.622407 0.1352 0.491268 4.01773 -14.052
229 1 Zr 0.641402 0.0267687 0.607673 8.41427 -14.3064
230 1 Zr 0.481397 0.117903 0.606676 7.84905 -14.2791
231 1 Zr 0.363788 0.260942 0.627677 7.05549 -13.9339
232 1 Zr 0.490417 0.264556 0.495822 7.39885 -13.9679
233 1 Zr 0.614776 0.25793 0.635432 8.89342 -14.0767
234 2 N 0.368032 0.122163 0.368553 7.90881 -6.1148
235 2 N 0.384651 0.991124 0.508039 7.05674 -5.93423
236 2 N 0.497934 0.0168989 0.395879 6.7835 -5.78774
237 2 N 0.638033 0.132412 0.371903 11.1651 -5.51711
238 2 N 0.63621 0.999292 0.497676 6.33345 -6.24924
239 2 N 0.503348 0.139654 0.495119 7.05613 -6.28767
240 2 N 0.364761 0.261752 0.509331 6.37811 -6.18176
241 2 N 0.511779 0.254338 0.385191 4.59455 -6.03816
242 2 N 0.618389 0.260099 0.506006 7.18098 -5.83555
243 2 N 0.370901 0.144308 0.612291 6.46226 -6.54133
244 2 N 0.501315 -0.00186474 0.621979 7.35193 -6.21731
245 2 N 0.614343 0.13982 0.611864 6.60006 -6.06517
246 2 N 0.494671 0.24999 0.618284 9.83133 -6.02354
247 1 Zr 0.917843 0.974185 0.298447 8.04159 -18.8615
248 1 Zr 0.772939 0.0472549 0.285335 9.47085 -16.2419
249 1 Zr 0.873801 0.249676 0.404052 7.15701 -13.5317
250 1 Zr 0.757247 0.00857923 0.46931 9.06688 -14.4052
251 1 Zr 0.868489 0.109337 0.520689 10.5371 -14.3795
252 1 Zr 0.889844 0.967161 0.595547 9.74228 -14.7834
253 1 Zr 0.758044 0.128254 0.62022 2.80921 -14.8596
254 1 Zr 0.74482 0.251646 0.499427 3.44302 -13.9821
255 1 Zr 0.864 0.269532 0.642601 6.72011 -14.3237
256 2 N 0.783008 0.992691 0.351754 10.7255 -7.25086
257 2 N 0.875263 0.13143 0.41936 7.51009 -5.47861
258 2 N 0.878239 0.992167 0.482531 8.08203 -6.35392
259 2 N 0.741525 0.127106 0.496673 6.30943 -5.66775
260 2 N 0.752003 0.24331 0.38714 5.36193 -5.59339
261 2 N 0.87072 0.243677 0.528459 8.27502 -6.01479
262 2 N 0.760174 0.0029799 0.594807 7.12763 -5.97857
263 2 N 0.889291 0.148133 0.658128 10.0019 -6.59159
264 2 N 0.734382 0.247746 0.621168 6.42568 -6.03527
265 1 Zr 0.987421 0.367861 0.403102 10.1653 -13.6975
266 1 Zr 0.251188 0.377369 0.384872 6.27777 -14.3745
267 1 Zr 0.0935835 0.531422 0.371383 11.5922 -15.6466
268 1 Zr 0.056819 0.642678 0.447397 7.35119 -17.7242
269 1 Zr 0.269194 0.625961 0.374263 7.87975 -13.6096
270 1 Zr 0.108245 0.370582 0.501723 7.1505 -13.8241
271 1 Zr 0.983242 0.397 0.637753 6.52688 -13.9862
272 1 Zr 0.238878 0.373837 0.62636 4.0407 -14.0055
273 1 Zr 0.989332 0.528109 0.50085 7.17257 -13.8711
274 1 Zr 0.151754 0.606953 0.524766 11.6763 -16.8908
275 1 Zr 0.101551 0.516466 0.620191 8.78354 -14.4092
276 1 Zr 0.00448344 0.640754 0.635371 4.42514 -13.9515
277 1 Zr 0.237675 0.505411 0.471982 9.06274 -14.7447
278 1 Zr 0.263157 0.618456 0.631588 6.00413 -14.0274
279 2 N 0.118698 0.382776 0.38625 4.93797 -5.31728
280 2 N 0.988496 0.385842 0.519059 5.87742 -6.22614
281 2 N 0.239823 0.375878 0.507672 7.02977 -5.82278
282 2 N -0.0152953 0.485498 0.397956 8.79682 -6.30036
283 2 N 0.16357 0.638285 0.359725 7.45373 -5.34424
284 2 N 0.109106 0.485098 0.499608 8.68658 -5.84765
285 2 N 0.983515 0.639414 0.500477 9.6718 -7.39486
286 2 N 0.242757 0.499415 0.366666 9.56121 -6.06863
287 2 N 0.267447 0.627599 0.503433 6.67312 -6.28679
288 2 N 0.115695 0.385054 0.625707 3.84345 -5.77589
289 2 N 0.989173 0.518265 0.6191 6.74621 -6.24372
290 2 N 0.141188 0.62804 0.630356 6.52946 -6.22941
291 2 N 0.239013 0.496986 0.615694 7.55269 -5.76296
292 1 Zr 0.488399 0.37302 0.383906 8.67345 -14.1241
293 1 Zr 0.372743 0.483666 0.373879 7.0174 -14.0201
294 1 Zr 0.625585 0.502713 0.389963 6.26081 -14.0302
295 1 Zr 0.501548 0.617365 0.381962 3.53808 -13.8946
296 1 Zr 0.368633 0.372427 0.477507 7.0028 -14.4858
297 1 Zr 0.622672 0.383727 0.497622 7.01956 -14.1638
298 1 Zr 0.487644 0.372489 0.630048 7.59159 -14.3212
299 1 Zr 0.382125 0.617235 0.48847 7.4517 -14.3741
300 1 Zr 0.363395 0.500316 0.625724 10.8089 -14.1626
301 1 Zr 0.483904 0.504655 0.494353 10.0957 -14.3256
302 1 Zr 0.625714 0.626027 0.490125 9.08127 -14.0594
303 1 Zr 0.607082 0.508537 0.637326 9.77935 -14.0803
304 1 Zr 0.501039 0.631371 0.634608 7.0444 -14.3243
305 2 N 0.367009 0.370396 0.360366 8.02665 -6.28352
306 2 N 0.614957 0.37823 0.380517 10.2294 -5.93721
307 2 N 0.494573 0.384643 0.509245 6.98877 -6.09037
308 2 N 0.388057 0.604777 0.362879 7.3229 -6.22154
309 2 N 0.358998 0.494851 0.500547 7.7075 -5.99225
310 2 N 0.501252 0.495128 0.374936 7.84842 -5.99945
311 2 N 0.62224 0.619978 0.370253 10.2967 -6.15261
312 2 N 0.609809 0.502116 0.51205 9.51562 -6.10682
313 2 N 0.504965 0.627431 0.509026 9.32713 -5.95255
314 2 N 0.365581 0.380261 0.614874 6.8517 -6.07876
315 2 N 0.610762 0.380818 0.623859 9.64395 -5.97013
316 2 N 0.380338 0.615482 0.616934 7.6431 -6.33826
317 2 N 0.487664 0.499677 0.619528 7.2249 -6.01394
318 2 N 0.624642 0.620929 0.618884 9.68981 -6.14398
319 1 Zr 0.735647 0.367854 0.394262 7.26493 -14.0255
320 1 Zr 0.870374 0.48904 0.38196 7.93746 -13.6812
321 1 Zr 0.736357 0.618404 0.380141 4.19339 -13.9466
322 1 Zr 0.873796 0.363851 0.526631 9.78007 -14.2566
323 1 Zr 0.735362 0.374607 0.643573 6.17868 -14.1555
324 1 Zr 0.733543 0.49303 0.497259 9.8163 -14.2292
325 1 Zr 0.866964 0.618388 0.517334 7.09032 -13.9899
326 1 Zr 0.860089 0.508794 0.64352 3.85264 -14.9703
327 1 Zr 0.75253 0.615826 0.63072 6.26046 -14.3702
328 2 N 0.857579 0.370989 0.399287 6.75989 -5.85225
329 2 N 0.745736 0.373226 0.517612 5.7848 -6.07312
330 2 N 0.745381 0.493271 0.380281 11.0352 -6.02302
331 2 N 0.863572 0.608194 0.397355 7.35032 -5.51966
332 2 N 0.861163 0.493067 0.514286 6.31763 -5.61192
333 2 N 0.746106 0.619447 0.507939 3.82043 -5.91546
334 2 N 0.856307 0.395097 0.64136 6.35577 -6.28012
335 2 N 0.732451 0.496989 0.620454 6.79841 -6.02758
336 2 N 0.879727 0.642772 0.640411 7.42365 -5.61742
337 1 Zr 0.0554455 0.750443 0.367172 9.90409 -18.8503
338 1 Zr 0.0348238 0.872055 0.401139 7.2702 -22.0671
339 1 Zr 0.253456 0.877844 0.362363 8.3976 -13.9572
340 1 Zr 0.998684 0.756729 0.512586 4.18293 -13.9527
341 1 Zr 0.128515 0.90228 0.490002 9.12247 -15.7024
342 1 Zr 0.131732 0.74792 0.628928 3.45021 -13.8114
343 1 Zr 0.998723 0.832041 0.676874 6.89455 -17.5128
344 1 Zr 0.247687 0.741327 0.487773 4.89509 -14.0313
345 1 Zr 0.262997 0.873063 0.613281 9.18766 -14.1491
346 2 N 0.955001 0.75781 0.40775 5.85426 -5.83042
347 2 N 0.150175 0.849592 0.347725 8.65271 -5.3595
348 2 N 0.131377 0.741801 0.51034 8.79153 -5.41713
349 2 N 0.0120403 0.878252 0.524081 8.82698 -5.46097
350 2 N 0.270418 0.748213 0.370043 6.53197 -5.89382
351 2 N 0.252812 0.864266 0.48214 7.98579 -5.97103
352 2 N 1.0015 0.760288 0.628547 8.2987 -8.09508
353 2 N 0.148898 0.859266 0.607189 9.65938 -5.50315
354 2 N 0.254952 0.743735 0.615315 6.21577 -5.95385
355 1 Zr 0.385195 0.729484 0.383861 6.86586 -13.8187
356 1 Zr 0.612894 0.779042 0.38346 9.28624 -14.2558
357 1 Zr 0.484885 0.882299 0.368548 7.74351 -14.5349
358 1 Zr 0.372071 0.87717 0.510965 5.45165 -14.4354
359 1 Zr 0.374487 0.734897 0.635046 7.05863 -14.0525
360 1 Zr 0.497799 0.757731 0.494656 11.2531 -14.0552
361 1 Zr 0.623838 0.874136 0.494346 7.52164 -14.5669
362 1 Zr 0.615326 0.74531 0.639801 6.08535 -14.2001
363 1 Zr 0.485067 0.882098 0.612866 8.4423 -13.9075
364 2 N 0.390715 0.84199 0.38516 10.8771 -6.21653
365 2 N 0.379461 0.743002 0.508451 6.37941 -5.81949
366 2 N 0.50915 0.738838 0.369514 7.17754 -6.03553
367 2 N 0.618254 0.892395 0.374831 9.74021 -5.98986
368 2 N 0.616273 0.741927 0.50942 6.93464 -6.01626
369 2 N 0.498413 0.878336 0.490897 4.47615 -6.02597
370 2 N 0.375519 0.854476 0.630226 8.65724 -6.31805
371 2 N 0.498045 0.751198 0.614142 6.04328 -6.07869
372 2 N 0.607385 0.876414 0.618282 6.59164 -5.68411
373 1 Zr 0.846215 0.749479 0.401425 8.41618 -13.366
374 1 Zr 0.741811 0.88825 0.369342 6.04049 -13.3782
375 1 Zr 0.737413 0.760614 0.507152 8.17674 -13.9388
376 1 Zr 0.910422 0.894713 0.4521 8.49144 -14.4982
377 1 Zr 0.893234 0.76384 0.626174 7.97624 -13.5472
378 1 Zr 0.728974 0.886332 0.598974 6.96601 -13.8571
379 2 N 0.722528 0.735595 0.388184 8.57047 -6.01413
380 2 N 0.855334 0.860497 0.376096 8.34942 -6.35429
381 2 N 0.853541 0.740786 0.521375 8.33514 -5.82666
382 2 N 0.745805 0.876115 0.48517 4.54518 -6.05846
383 2 N 0.732039 0.741042 0.622572 4.81137 -5.64386
384 2 N 0.849895 0.871359 0.605029 8.52126 -5.74268
385 1 Zr 0.0172929 0.0524025 0.770196 14.2753 -16.7581
386 1 Zr 0.123533 0.0905568 0.728673 9.1768 -16.5039
387 1 Zr 0.0963972 0.0778905 0.941994 13.4797 -15.7894
388 1 Zr 0.0101813 0.208536 0.851365 11.0937 -16.2718
389 1 Zr 0.232017 0.0204484 0.747551 11.5611 -14.1695
390 1 Zr 0.245243 0.110774 0.859106 5.87682 -13.8041
391 1 Zr 0.00850656 0.284139 0.741362 7.43579 -14.1253
392 1 Zr 0.110623 0.284627 0.896978 9.70412 -16.2556
393 1 Zr 0.243151 0.244615 0.754043 5.17053 -14.0961
394 2 N 0.127213 0.961078 0.713744 13.2233 -6.29012
395 2 N 0.00939676 0.18037 0.764609 11.7089 -6.84359
396 2 N 0.273214 0.137364 0.735598 8.57878 -6.06614
397 2 N 0.131849 0.269512 0.741549 7.08677 -5.64671
398 2 N 0.0142273 0.992185 0.831422 11.5822 -6.8502
399 2 N 0.12231 0.117614 0.865354 10.0824 -6.36704
400 2 N 0.258294 0.997257 0.837827 7.92653 -6.44582
401 2 N 0.994451 0.332857 0.867211 6.11214 -6.13507
402 2 N 0.24905 0.228814 0.892371 8.60544 -5.63264
403 1 Zr 0.387473 0.128469 0.734231 8.43779 -14.2786
404 1 Zr 0.386656 0.993975 0.838961 7.18395 -13.7637
405 1 Zr 0.495641 0.0243032 0.729854 7.34036 -13.8743
406 1 Zr 0.627967 0.127161 0.730993 7.14671 -13.9329
407 1 Zr 0.647357 0.991043 0.846736 7.72733 -13.924
408 1 Zr 0.492914 0.104563 0.860412 6.3981 -14.1857
409 1 Zr 0.36691 0.248239 0.878113 4.1136 -14.125
410 1 Zr 0.497069 0.256628 0.739687 9.52426 -13.8424
411 1 Zr 0.626481 0.226704 0.874791 5.67882 -14.3426
412 2 N 0.364826 0.988311 0.714942 8.71525 -5.85415
413 2 N 0.617513 1.00353 0.725369 4.24181 -6.13586
414 2 N 0.509456 0.141062 0.733239 9.24407 -6.26478
415 2 N 0.376981 0.255954 0.751186 6.36537 -5.94832
416 2 N 0.626551 0.259221 0.757316 7.25607 -5.9319
417 2 N 0.375325 0.126222 0.854131 6.59493 -5.62832
418 2 N 0.507193 0.988506 0.832102 3.84966 -6.5748
419 2 N 0.614179 0.116276 0.854267 7.29751 -5.88157
420 2 N 0.499812 0.235313 0.862961 7.08877 -6.00602
421 1 Zr 0.741377 0.994164 0.717848 8.85585 -13.7463
422 1 Zr 0.917177 0.0653828 0.694546 11.2433 -15.7909
423 1 Zr 0.870235 0.0859786 0.926214 14.011 -20.2582
424 1 Zr 0.740922 0.119811 0.858816 6.15605 -13.7763
425 1 Zr 0.755146 0.256572 0.745773 7.64532 -14.1468
426 1 Zr 0.887933 0.257898 0.88912 12.4157 -14.9202
427 2 N 0.851532 0.975115 0.721457 12.7248 -6.07699
428 2 N 0.742214 0.136308 0.735996 6.99871 -5.84233
429 2 N 0.874168 0.27317 0.761565 7.16366 -5.84735
430 2 N 0.754577 0.0149852 0.831616 9.41996 -6.37684
431 2 N 0.865021 0.121789 0.855828 10.7381 -7.75557
432 2 N 0.751431 0.239762 0.865062 6.66507 -6.10882
433 1 Zr 0.117333 0.387419 0.755014 8.29717 -13.9905
434 1 Zr 0.000462991 0.427123 0.879615 6.13778 -15.9214
435 1 Zr 0.256621 0.357467 0.8651 6.33671 -13.9594
436 1 Zr 0.960978 0.554622 0.745429 8.88787 -14.3096
437 1 Zr 0.0978664 0.613261 0.768794 13.1785 -14.3795
438 1 Zr 0.117644 0.503999 0.867367 9.90654 -15.3075
439 1 Zr 0.0053931 0.681457 0.915296 11.6079 -16.0577
440 1 Zr 0.255225 0.490129 0.734528 7.66243 -14.0448
441 1 Zr 0.26809 0.622862 0.869084 9.358 -13.7107
442 2 N 0.992688 0.427899 0.750278 4.59163 -5.8166
443 2 N 0.25779 0.365854 0.743604 6.05894 -6.06528
444 2 N 0.138843 0.499173 0.739135 10.7621 -5.93282
445 2 N 0.997204 0.659125 0.741309 11.6823 -6.00433
446 2 N 0.250707 0.612676 0.748141 6.62225 -5.91013
447 2 N 0.140362 0.364748 0.863575 12.2105 -6.77654
448 2 N 0.00464078 0.560674 0.85555 8.36232 -5.4586
449 2 N 0.152566 0.620005 0.874684 9.10186 -5.4686
450 2 N 0.250561 0.487725 0.866355 6.77404 -5.46517
451 1 Zr 0.380781 0.377574 0.736874 6.97882 -14.3573
452 1 Zr 0.633298 0.38117 0.749997 8.32838 -14.3285
453 1 Zr 0.500067 0.355827 0.881889 7.87732 -14.4034
454 1 Zr 0.375285 0.630124 0.742443 6.63036 -14.2781
455 1 Zr 0.375408 0.502796 0.879859 9.30562 -14.2194
456 1 Zr 0.497798 0.490919 0.739828 9.98318 -13.9433
457 1 Zr 0.628296 0.636717 0.740246 9.94024 -14.3426
458 1 Zr 0.615436 0.51038 0.882092 7.82077 -14.142
459 1 Zr 0.501405 0.620156 0.877788 9.8271 -13.9517
460 2 N 0.506814 0.374486 0.755046 6.91991 -6.15123
461 2 N 0.375475 0.504764 0.755336 9.48162 -5.97625
462 2 N 0.617062 0.503117 0.758338 10.2065 -6.14159
463 2 N 0.497973 0.613197 0.752408 9.83938 -6.08444
464 2 N 0.378957 0.377934 0.8588 9.39247 -6.01049
465 2 N 0.609118 0.376481 0.877362 4.24256 -5.96193
466 2 N 0.384945 0.62883 0.863213 6.58991 -6.15538
467 2 N 0.492146 0.493194 0.866978 10.6315 -6.00427
468 2 N 0.614339 0.632095 0.859723 7.28676 -6.33614
469 1 Zr 0.883902 0.385784 0.767516 7.44615 -13.9975
470 1 Zr 0.726567 0.355618 0.873585 10.7084 -13.7875
471 1 Zr 0.738074 0.499978 0.747181 9.2994 -13.926
472 1 Zr 0.878431 0.667047 0.782841 13.151 -15.2951
473 1 Zr 0.88575 0.500879 0.888579 10.0445 -14.7722
474 1 Zr 0.732757 0.626237 0.877237 8.90037 -13.8982
475 2 N 0.750371 0.378236 0.756732 5.44727 -6.41615
476 2 N 0.850881 0.500571 0.767974 7.71797 -5.9689
477 2 N 0.749055 0.625558 0.752321 6.63653 -5.78659
478 2 N 0.838978 0.365917 0.886871 7.60147 -5.57716
479 2 N 0.728228 0.492076 0.870414 8.1943 -5.65655
480 2 N 0.847233 0.614552 0.883995 9.31481 -5.52644
481 1 Zr 0.936513 0.751272 0.852709 6.94187 -20.3282
482 1 Zr 0.105856 0.870014 0.724916 9.622 -14.246
483 1 Zr 0.128168 0.735446 0.922195 6.97403 -14.0709
484 1 Zr 0.995818 0.889825 0.877726 8.66612 -13.1646
485 1 Zr 0.252634 0.739105 0.742877 10.2929 -13.7724
486 1 Zr 0.274237 0.877131 0.874391 10.4034 -15.9836
487 2 N 0.13748 0.729426 0.754302 10.0917 -4.97997
488 2 N 0.982246 0.804786 0.814067 13.2629 -8.08097
489 2 N 0.232442 0.856145 0.754226 8.77334 -5.36784
490 2 N 0.0295409 0.765011 1.00296 10.1217 -6.43796
491 2 N 0.135213 0.857095 0.919559 11.274 -5.74
492 2 N 0.250943 0.742518 0.861058 7.77148 -5.55079
493 1 Zr 0.353002 0.876671 0.746693 6.44684 -14.1695
494 1 Zr 0.369258 0.764053 0.892647 13.1966 -14.5124
495 1 Zr 0.499752 0.737473 0.743468 6.54045 -14.1204
496 1 Zr 0.619981 0.881915 0.742768 6.88505 -14.3761
497 1 Zr 0.649955 0.751747 0.883281 6.72589 -14.0038
498 1 Zr 0.518371 0.86604 0.848807 7.60523 -14.5809
499 2 N 0.376523 0.749633 0.756031 6.57529 -5.95673
500 2 N 0.612409 0.752489 0.756783 10.7349 -6.4258
501 2 N 0.499263 0.861857 0.737498 5.44243 -5.63964
502 2 N 0.397807 0.875548 0.854527 7.72675 -5.985
503 2 N 0.499364 0.748383 0.865675 4.42168 -5.68232
504 2 N 0.672394 0.865013 0.866673 8.14506 -6.28909
19 2 N 0.886623 0.910661 0.8478 9.1048 -5.35575
505 1 Zr 0.730899 0.761503 0.7453 7.83742 -13.6575
506 1 Zr 0.891154 0.878531 0.737827 11.0331 -14.474
507 1 Zr 0.858477 0.80899 0.925428 7.68725 -22.032
508 1 Zr 0.761429 0.89364 0.879778 6.07444 -16.4319
509 2 N 0.842851 0.76865 0.732669 8.30084 -5.80595
510 2 N 0.733405 0.87385 0.714278 8.99985 -5.74086
511 2 N 0.757885 0.740302 0.864818 7.00544 -5.88577
