ITEM: TIMESTEP
10
ITEM: NUMBER OF ATOMS
56
ITEM: BOX BOUNDS pp pp pp
-4.5400000000000000e+00 4.5400000000000000e+00
-4.5400000000000000e+00 4.5400000000000000e+00
-4.5400000000000000e+00 4.5400000000000000e+00
ITEM: ATOMS id element type xs ys zs c_csym c_eng
1 Zr 1 5.23125e-13 3.25242e-13 -1.95634e-16 5.26518 -14.129
2 Zr 1 0.25 0.25 -2.93451e-16 5.26518 -14.129
3 Zr 1 0.25 1.95634e-16 0.284207 8.81346 -14.3031
4 Zr 1 2.93451e-16 0.25 0.284207 8.81346 -14.3031
5 Zr 1 0.5 1.55529e-13 9.7817e-17 5.26518 -14.129
6 Zr 1 0.75 0.25 -2.93451e-16 5.26518 -14.129
7 Zr 1 0.75 4.89085e-16 0.284207 8.81346 -14.3031
8 Zr 1 0.5 0.25 0.284207 8.81346 -14.3031
9 Zr 1 5.1618e-13 0.5 1.95634e-16 5.26518 -14.129
10 Zr 1 0.25 0.75 -4.89085e-16 5.26518 -14.129
11 Zr 1 0.25 0.5 0.284207 8.81346 -14.3031
12 Zr 1 5.86902e-16 0.75 0.284207 8.81346 -14.3031
13 Zr 1 0.5 0.5 -2.93451e-16 5.26518 -14.129
14 Zr 1 0.75 0.75 -1.95634e-16 5.26518 -14.129
15 Zr 1 0.75 0.5 0.284207 8.81346 -14.3031
16 Zr 1 0.5 0.75 0.284207 8.81346 -14.3031
17 Zr 1 1.1738e-15 3.91268e-16 0.5 3.83925 -14.3842
18 Zr 1 0.25 0.25 0.5 3.83925 -14.3842
19 Zr 1 0.25 -9.7817e-17 0.715793 8.81346 -14.3031
20 Zr 1 3.91268e-16 0.25 0.715793 8.81346 -14.3031
21 Zr 1 0.5 5.86902e-16 0.5 3.83232e-25 -14.3842
22 Zr 1 0.75 0.25 0.5 3.83925 -14.3842
23 Zr 1 0.75 1.95634e-16 0.715793 8.81346 -14.3031
24 Zr 1 0.5 0.25 0.715793 8.81346 -14.3031
25 Zr 1 1.1738e-15 0.5 0.5 2.6108e-25 -14.3842
26 Zr 1 0.25 0.75 0.5 3.83925 -14.3842
27 Zr 1 0.25 0.5 0.715793 8.81346 -14.3031
28 Zr 1 6.84719e-16 0.75 0.715793 8.81346 -14.3031
29 Zr 1 0.5 0.5 0.5 5.34718e-25 -14.3842
30 Zr 1 0.75 0.75 0.5 3.83925 -14.3842
31 Zr 1 0.75 0.5 0.715793 8.81346 -14.3031
32 Zr 1 0.5 0.75 0.715793 8.81346 -14.3031
33 N 2 1.99547e-14 -2.23023e-14 0.247303 6.05595 -5.98957
34 N 2 0.25 0.25 0.247303 6.05595 -5.98957
35 N 2 0.25 -9.39043e-15 0.5 5.1529 -6.82391
36 N 2 -9.29262e-15 0.25 0.5 5.1529 -6.82391
37 N 2 0.5 1.05642e-13 0.247303 6.05595 -5.98957
38 N 2 0.75 0.25 0.247303 6.05595 -5.98957
39 N 2 0.75 9.1948e-15 0.5 5.1529 -6.82391
40 N 2 0.5 0.25 0.5 5.1529 -6.82391
41 N 2 -8.51008e-14 0.5 0.247303 6.05595 -5.98957
42 N 2 0.25 0.75 0.247303 6.05595 -5.98957
43 N 2 0.25 0.5 0.5 5.1529 -6.82391
44 N 2 9.29262e-15 0.75 0.5 5.1529 -6.82391
45 N 2 0.5 0.5 0.247303 6.05595 -5.98957
46 N 2 0.75 0.75 0.247303 6.05595 -5.98957
47 N 2 0.75 0.5 0.5 5.1529 -6.82391
48 N 2 0.5 0.75 0.5 5.1529 -6.82391
49 N 2 -1.99547e-14 3.11058e-14 0.752697 6.05595 -5.98957
50 N 2 0.25 0.25 0.752697 6.05595 -5.98957
51 N 2 0.5 -1.15131e-13 0.752697 6.05595 -5.98957
52 N 2 0.75 0.25 0.752697 6.05595 -5.98957
53 N 2 8.40248e-14 0.5 0.752697 6.05595 -5.98957
54 N 2 0.25 0.75 0.752697 6.05595 -5.98957
55 N 2 0.5 0.5 0.752697 6.05595 -5.98957
56 N 2 0.75 0.75 0.752697 6.05595 -5.98957
