ITEM: TIMESTEP
1
ITEM: NUMBER OF ATOMS
7
ITEM: BOX BOUNDS pp pp pp
0.0000000000000000e+00 4.5400000000000000e+00
0.0000000000000000e+00 4.5400000000000000e+00
0.0000000000000000e+00 4.5400000000000000e+00
ITEM: ATOMS id type element xs ys zs c_csym c_eng
1 1 Zr 0 0 0 5.1529 -13.8198
2 1 Zr 0.5 0.5 0 5.1529 -14.3481
3 1 Zr 0.5 0 0.5 5.1529 -13.8198
4 1 Zr 0 0.5 0.5 5.1529 -13.8198
5 2 N 0.5 0 0 5.1529 -6.07189
6 2 N 0 0.5 0 5.1529 -6.07189
7 2 N 0.5 0.5 0.5 5.1529 -6.07189
