ITEM: TIMESTEP
34
ITEM: NUMBER OF ATOMS
215
ITEM: BOX BOUNDS pp pp pp
0.0000000000000000e+00 1.3620000000000001e+01
0.0000000000000000e+00 1.3620000000000001e+01
0.0000000000000000e+00 1.3620000000000001e+01
ITEM: ATOMS id type element xs ys zs c_csym c_eng
1 1 Zr -3.13904e-17 -6.9969e-17 -0.0267025 8.22212 -14.2456
2 1 Zr 0.168003 0.168003 -0.00133646 9.62988 -14.351
3 1 Zr 0.193369 4.03355e-17 0.166667 8.22212 -14.2456
4 1 Zr 1.25834e-16 0.193369 0.166667 8.22212 -14.2456
5 1 Zr 0.330591 1.20164e-16 -0.00141917 12.6547 -14.3608
6 1 Zr 0.5 0.166295 0.000371647 15.165 -14.3486
7 1 Zr 0.5 -3.82754e-17 0.166667 1.41151e-28 -14.3205
8 1 Zr 0.330591 0.168086 0.166667 12.6547 -14.3608
9 1 Zr -1.86488e-16 0.330591 -0.00141917 12.6547 -14.3608
10 1 Zr 0.166295 0.5 0.000371647 15.165 -14.3486
11 1 Zr 0.168086 0.330591 0.166667 12.6547 -14.3608
12 1 Zr -4.25499e-17 0.5 0.166667 5.13096 -14.3205
13 1 Zr 0.333144 0.333144 3.18354e-05 10.1019 -14.358
14 1 Zr 0.5 0.5 0.000125043 5.08884 -14.3494
15 1 Zr 0.5 0.334383 0.166667 14.9817 -14.3499
16 1 Zr 0.334383 0.5 0.166667 9.96096 -14.3499
17 1 Zr 8.35381e-17 1.52488e-17 0.360036 8.22212 -14.2456
18 1 Zr 0.168003 0.168003 0.33467 9.62988 -14.351
19 1 Zr 0.168086 -2.0412e-17 0.497258 12.6547 -14.3608
20 1 Zr -2.53881e-16 0.168086 0.497258 12.6547 -14.3608
21 1 Zr 0.330591 -1.00014e-16 0.334753 12.6547 -14.3608
22 1 Zr 0.5 0.166295 0.332962 15.165 -14.3486
23 1 Zr 0.5 -3.06008e-16 0.50105 14.9817 -14.3499
24 1 Zr 0.333144 0.166635 0.499811 10.1019 -14.358
25 1 Zr -1.25776e-16 0.330591 0.334753 12.6547 -14.3608
26 1 Zr 0.166295 0.5 0.332962 15.165 -14.3486
27 1 Zr 0.166635 0.333144 0.499811 10.1019 -14.358
28 1 Zr -4.79603e-16 0.5 0.50105 14.9817 -14.3499
29 1 Zr 0.333144 0.333144 0.333301 10.1019 -14.358
30 1 Zr 0.5 0.5 0.333208 5.08884 -14.3494
31 1 Zr 0.5 0.333667 0.500334 15.2348 -14.3531
32 1 Zr 0.333667 0.5 0.500334 15.2348 -14.3531
33 2 N 0.163316 -3.87734e-17 0.00335049 5.1859 -6.03103
34 2 N -8.02554e-17 0.163316 0.00335049 5.1859 -6.03103
35 2 N 0.5 -2.06243e-17 -0.00196289 4.91113 -6.00676
36 2 N 0.333293 0.165938 0.0007291 4.99163 -6.09118
37 2 N 0.165938 0.333293 0.0007291 4.99163 -6.09118
38 2 N 1.53223e-17 0.5 -0.00196289 4.91113 -6.00676
39 2 N 0.5 0.3333 -0.000330254 10.0734 -6.05922
40 2 N 0.3333 0.5 -0.000330254 10.0734 -6.05922
42 2 N 0.163316 0.163316 0.166667 5.1859 -6.03103
43 2 N 0.163316 1.61715e-17 0.329983 5.1859 -6.03103
44 2 N 4.58724e-17 0.163316 0.329983 5.1859 -6.03103
45 2 N 0.337709 2.71513e-17 0.166667 13.5352 -6.42487
46 2 N 0.5 0.16863 0.166667 4.91113 -6.00676
47 2 N 0.5 8.21315e-17 0.335296 4.91113 -6.00676
48 2 N 0.333293 0.165938 0.332604 4.99163 -6.09118
49 2 N -1.12624e-16 0.337709 0.166667 13.5352 -6.42487
50 2 N 0.16863 0.5 0.166667 4.91113 -6.00676
51 2 N 0.165938 0.333293 0.332604 4.99163 -6.09118
52 2 N 1.08954e-16 0.5 0.335296 4.91113 -6.00676
53 2 N 0.332574 0.332574 0.166667 10.226 -6.10667
54 2 N 0.5 0.5 0.166667 5.15501 -6.1243
55 2 N 0.5 0.3333 0.333664 10.0734 -6.05922
56 2 N 0.3333 0.5 0.333664 10.0734 -6.05922
57 2 N 6.92076e-17 -1.85146e-16 0.504376 13.5352 -6.42487
58 2 N 0.165938 0.165938 0.49996 4.99163 -6.09118
59 2 N 0.332574 2.62112e-17 0.499241 10.226 -6.10667
60 2 N 0.5 0.166997 0.499967 10.0734 -6.05922
61 2 N 2.69802e-17 0.332574 0.499241 10.226 -6.10667
62 2 N 0.166997 0.5 0.499967 10.0734 -6.05922
63 2 N 0.332777 0.332777 0.499444 0.0053341 -6.07086
64 2 N 0.5 0.5 0.49998 5.10973 -6.08603
65 1 Zr 0.669409 -1.38228e-16 -0.00141917 12.6547 -14.3608
66 1 Zr 0.831997 0.168003 -0.00133646 9.62988 -14.351
67 1 Zr 0.806631 -2.01531e-16 0.166667 8.22212 -14.2456
68 1 Zr 0.669409 0.168086 0.166667 12.6547 -14.3608
69 1 Zr 0.666856 0.333144 3.18354e-05 10.1019 -14.358
70 1 Zr 0.833705 0.5 0.000371647 15.165 -14.3486
71 1 Zr 0.831914 0.330591 0.166667 12.6547 -14.3608
72 1 Zr 0.665617 0.5 0.166667 14.9817 -14.3499
73 1 Zr 0.669409 -1.95946e-17 0.334753 12.6547 -14.3608
74 1 Zr 0.831997 0.168003 0.33467 9.62988 -14.351
75 1 Zr 0.831914 -1.83317e-16 0.497258 12.6547 -14.3608
76 1 Zr 0.666856 0.166635 0.499811 10.1019 -14.358
77 1 Zr 0.666856 0.333144 0.333301 10.1019 -14.358
78 1 Zr 0.833705 0.5 0.332962 15.165 -14.3486
79 1 Zr 0.833365 0.333144 0.499811 10.1019 -14.358
80 1 Zr 0.666333 0.5 0.500334 15.2348 -14.3531
81 2 N 0.836684 5.65219e-17 0.00335049 5.1859 -6.03103
82 2 N 0.666707 0.165938 0.0007291 4.99163 -6.09118
83 2 N 0.834062 0.333293 0.0007291 4.99163 -6.09118
84 2 N 0.6667 0.5 -0.000330254 10.0734 -6.05922
85 2 N 0.662291 -1.24935e-18 0.166667 9.08292 -6.42487
86 2 N 0.836684 0.163316 0.166667 5.1859 -6.03103
87 2 N 0.836684 -5.82028e-17 0.329983 5.1859 -6.03103
88 2 N 0.666707 0.165938 0.332604 4.99163 -6.09118
89 2 N 0.667426 0.332574 0.166667 10.226 -6.10667
90 2 N 0.83137 0.5 0.166667 4.91113 -6.00676
91 2 N 0.834062 0.333293 0.332604 4.99163 -6.09118
92 2 N 0.6667 0.5 0.333664 10.0734 -6.05922
93 2 N 0.667426 3.91548e-18 0.499241 10.226 -6.10667
94 2 N 0.834062 0.165938 0.49996 4.99163 -6.09118
95 2 N 0.667223 0.332777 0.499444 0.0053341 -6.07086
96 2 N 0.833003 0.5 0.499967 10.0734 -6.05922
97 1 Zr -1.42455e-16 0.669409 -0.00141917 12.6547 -14.3608
98 1 Zr 0.168003 0.831997 -0.00133646 9.62988 -14.351
99 1 Zr 0.168086 0.669409 0.166667 12.6547 -14.3608
100 1 Zr -2.61383e-16 0.806631 0.166667 8.22212 -14.2456
101 1 Zr 0.333144 0.666856 3.18354e-05 10.1019 -14.358
102 1 Zr 0.5 0.833705 0.000371647 15.165 -14.3486
103 1 Zr 0.5 0.665617 0.166667 14.9817 -14.3499
104 1 Zr 0.330591 0.831914 0.166667 12.6547 -14.3608
105 1 Zr -2.4258e-16 0.669409 0.334753 12.6547 -14.3608
106 1 Zr 0.168003 0.831997 0.33467 9.62988 -14.351
107 1 Zr 0.166635 0.666856 0.499811 10.1019 -14.358
108 1 Zr -3.20138e-16 0.831914 0.497258 12.6547 -14.3608
109 1 Zr 0.333144 0.666856 0.333301 10.1019 -14.358
110 1 Zr 0.5 0.833705 0.332962 15.165 -14.3486
111 1 Zr 0.5 0.666333 0.500334 15.2348 -14.3531
112 1 Zr 0.333144 0.833365 0.499811 10.1019 -14.358
113 2 N 0.165938 0.666707 0.0007291 4.99163 -6.09118
114 2 N -4.54613e-18 0.836684 0.00335049 5.1859 -6.03103
115 2 N 0.5 0.6667 -0.000330254 10.0734 -6.05922
116 2 N 0.333293 0.834062 0.0007291 4.99163 -6.09118
117 2 N -7.25331e-17 0.662291 0.166667 13.5352 -6.42487
118 2 N 0.163316 0.836684 0.166667 5.1859 -6.03103
119 2 N 0.165938 0.666707 0.332604 4.99163 -6.09118
120 2 N -3.45539e-17 0.836684 0.329983 5.1859 -6.03103
121 2 N 0.332574 0.667426 0.166667 10.226 -6.10667
122 2 N 0.5 0.83137 0.166667 4.91113 -6.00676
123 2 N 0.5 0.6667 0.333664 10.0734 -6.05922
124 2 N 0.333293 0.834062 0.332604 4.99163 -6.09118
125 2 N 1.55264e-16 0.667426 0.499241 10.226 -6.10667
126 2 N 0.165938 0.834062 0.49996 4.99163 -6.09118
127 2 N 0.332777 0.667223 0.499444 0.0053341 -6.07086
128 2 N 0.5 0.833003 0.499967 10.0734 -6.05922
129 1 Zr 0.666856 0.666856 3.18354e-05 10.1019 -14.358
130 1 Zr 0.831997 0.831997 -0.00133646 9.62988 -14.351
131 1 Zr 0.831914 0.669409 0.166667 12.6547 -14.3608
132 1 Zr 0.669409 0.831914 0.166667 12.6547 -14.3608
133 1 Zr 0.666856 0.666856 0.333301 10.1019 -14.358
134 1 Zr 0.831997 0.831997 0.33467 9.62988 -14.351
135 1 Zr 0.833365 0.666856 0.499811 10.1019 -14.358
136 1 Zr 0.666856 0.833365 0.499811 10.1019 -14.358
137 2 N 0.834062 0.666707 0.0007291 4.99163 -6.09118
138 2 N 0.666707 0.834062 0.0007291 4.99163 -6.09118
139 2 N 0.667426 0.667426 0.166667 10.226 -6.10667
140 2 N 0.836684 0.836684 0.166667 5.1859 -6.03103
141 2 N 0.834062 0.666707 0.332604 4.99163 -6.09118
142 2 N 0.666707 0.834062 0.332604 4.99163 -6.09118
143 2 N 0.667223 0.667223 0.499444 0.0053341 -6.07086
144 2 N 0.834062 0.834062 0.49996 4.99163 -6.09118
145 1 Zr -1.38853e-17 2.74694e-16 0.666667 5.13096 -14.3205
146 1 Zr 0.166295 0.166295 0.666667 15.165 -14.3486
147 1 Zr 0.168086 -1.07264e-16 0.836076 12.6547 -14.3608
148 1 Zr -1.95977e-16 0.168086 0.836076 12.6547 -14.3608
149 1 Zr 0.334383 1.51041e-16 0.666667 14.9817 -14.3499
150 1 Zr 0.5 0.166542 0.666667 5.08884 -14.3494
151 1 Zr 0.5 -9.83448e-17 0.832284 14.9817 -14.3499
152 1 Zr 0.333144 0.166635 0.833523 10.1019 -14.358
153 1 Zr -1.71333e-16 0.334383 0.666667 14.9817 -14.3499
154 1 Zr 0.166542 0.5 0.666667 5.08884 -14.3494
155 1 Zr 0.166635 0.333144 0.833523 10.1019 -14.358
156 1 Zr -3.94223e-16 0.5 0.832284 14.9817 -14.3499
157 1 Zr 0.333667 0.333667 0.666667 15.2348 -14.3531
158 1 Zr 0.5 0.5 0.666667 5.1323 -14.3494
159 1 Zr 0.5 0.333667 0.832999 15.2348 -14.3531
160 1 Zr 0.333667 0.5 0.832999 15.2348 -14.3531
161 2 N 0.16863 -9.44856e-17 0.666667 4.91113 -6.00676
162 2 N 9.42295e-17 0.16863 0.666667 4.91113 -6.00676
163 2 N 0.5 -4.96883e-19 0.666667 1.3689e-28 -6.1243
164 2 N 0.3333 0.166997 0.666667 10.0734 -6.05922
165 2 N 0.166997 0.3333 0.666667 10.0734 -6.05922
166 2 N 1.18351e-16 0.5 0.666667 5.15501 -6.1243
167 2 N 0.5 0.333313 0.666667 5.10973 -6.08603
168 2 N 0.333313 0.5 0.666667 5.10973 -6.08603
169 2 N 1.18237e-17 9.16099e-18 0.828957 13.5352 -6.42487
170 2 N 0.165938 0.165938 0.833374 4.99163 -6.09118
171 2 N 0.332574 -6.73173e-17 0.834093 10.226 -6.10667
172 2 N 0.5 0.166997 0.833367 10.0734 -6.05922
173 2 N 1.14017e-16 0.332574 0.834093 10.226 -6.10667
174 2 N 0.166997 0.5 0.833367 10.0734 -6.05922
175 2 N 0.332777 0.332777 0.83389 0.0053341 -6.07086
176 2 N 0.5 0.5 0.833353 5.10973 -6.08603
177 1 Zr 0.665617 -8.1029e-17 0.666667 14.9817 -14.3499
178 1 Zr 0.833705 0.166295 0.666667 15.165 -14.3486
179 1 Zr 0.831914 -3.58886e-16 0.836076 12.6547 -14.3608
180 1 Zr 0.666856 0.166635 0.833523 10.1019 -14.358
181 1 Zr 0.666333 0.333667 0.666667 15.2348 -14.3531
182 1 Zr 0.833458 0.5 0.666667 5.08884 -14.3494
183 1 Zr 0.833365 0.333144 0.833523 10.1019 -14.358
184 1 Zr 0.666333 0.5 0.832999 15.2348 -14.3531
185 2 N 0.83137 8.6256e-17 0.666667 4.91113 -6.00676
186 2 N 0.6667 0.166997 0.666667 10.0734 -6.05922
187 2 N 0.833003 0.3333 0.666667 10.0734 -6.05922
188 2 N 0.666687 0.5 0.666667 5.10973 -6.08603
189 2 N 0.667426 -1.0135e-17 0.834093 10.226 -6.10667
190 2 N 0.834062 0.165938 0.833374 4.99163 -6.09118
191 2 N 0.667223 0.332777 0.83389 0.0053341 -6.07086
192 2 N 0.833003 0.5 0.833367 10.0734 -6.05922
193 1 Zr -1.87081e-16 0.665617 0.666667 14.9817 -14.3499
194 1 Zr 0.166295 0.833705 0.666667 15.165 -14.3486
195 1 Zr 0.166635 0.666856 0.833523 10.1019 -14.358
196 1 Zr -1.75845e-16 0.831914 0.836076 12.6547 -14.3608
197 1 Zr 0.333667 0.666333 0.666667 15.2348 -14.3531
198 1 Zr 0.5 0.833458 0.666667 5.08884 -14.3494
199 1 Zr 0.5 0.666333 0.832999 15.2348 -14.3531
200 1 Zr 0.333144 0.833365 0.833523 10.1019 -14.358
201 2 N 0.166997 0.6667 0.666667 10.0734 -6.05922
202 2 N -1.05764e-16 0.83137 0.666667 4.91113 -6.00676
203 2 N 0.5 0.666687 0.666667 5.10973 -6.08603
204 2 N 0.3333 0.833003 0.666667 10.0734 -6.05922
205 2 N 4.24878e-17 0.667426 0.834093 10.226 -6.10667
206 2 N 0.165938 0.834062 0.833374 4.99163 -6.09118
207 2 N 0.332777 0.667223 0.83389 0.0053341 -6.07086
208 2 N 0.5 0.833003 0.833367 10.0734 -6.05922
41 2 N 0.834062 0.834062 0.833374 4.99163 -6.09118
209 1 Zr 0.666333 0.666333 0.666667 15.2348 -14.3531
210 1 Zr 0.833705 0.833705 0.666667 15.165 -14.3486
211 1 Zr 0.833365 0.666856 0.833523 10.1019 -14.358
212 1 Zr 0.666856 0.833365 0.833523 10.1019 -14.358
213 2 N 0.833003 0.6667 0.666667 10.0734 -6.05922
214 2 N 0.6667 0.833003 0.666667 10.0734 -6.05922
215 2 N 0.667223 0.667223 0.83389 0.0053341 -6.07086
