ITEM: TIMESTEP
400
ITEM: NUMBER OF ATOMS
511
ITEM: BOX BOUNDS pp pp pp
0.0000000000000000e+00 1.8160000000000000e+01
0.0000000000000000e+00 1.8160000000000000e+01
0.0000000000000000e+00 1.8160000000000000e+01
ITEM: ATOMS id type element xs ys zs c_csym c_eng
1 1 Zr 0.978119 0.0316098 0.95096 9.6996 -15.6009
2 1 Zr 0.122981 0.142422 0.0323117 8.14271 -23.4166
3 1 Zr 0.195872 0.00851114 0.157851 11.36 -19.6873
4 1 Zr 0.978113 0.171841 0.1714 11.8197 -16.4711
5 1 Zr 0.268606 0.978512 0.977597 9.30799 -15.6448
6 1 Zr 0.209537 0.0964585 0.0884527 11.3186 -16.5156
7 1 Zr 0.0205456 0.179013 0.0604179 9.99435 -16.556
8 1 Zr 0.214584 0.300156 0.0896623 12.5113 -16.8811
9 1 Zr 0.170629 0.234122 0.993968 9.15729 -19.8192
10 1 Zr 0.0328137 0.939553 0.304382 10.9349 -19.6126
11 1 Zr 0.13452 0.160623 0.239465 9.38556 -14.3481
12 1 Zr 0.278792 0.0322101 0.248737 8.01299 -18.327
13 1 Zr 0.0197142 0.261694 0.257335 10.8374 -15.011
14 1 Zr 0.286221 0.246691 0.179094 10.7255 -18.3418
15 2 N 0.141027 0.994448 0.965389 9.45651 -5.70046
16 2 N 0.966205 0.181574 0.995052 10.0423 -6.10011
17 2 N 0.266123 0.0793759 0.966022 10.0637 -5.38212
18 2 N 0.0681772 0.295488 0.0112349 9.37237 -5.16321
20 2 N 0.133315 0.203733 0.14045 7.54409 -5.20103
21 2 N 0.123017 0.00101246 0.18752 9.40836 -8.30493
22 2 N 0.0214871 0.100385 0.263323 8.62107 -5.29405
23 2 N 0.345835 -0.00550987 0.151733 9.67516 -6.85284
24 2 N 0.249287 0.192698 0.237294 8.48948 -6.73711
25 2 N 0.960441 0.301477 0.140825 9.06304 -7.17573
26 2 N 0.117262 0.269638 0.274949 9.97238 -7.21915
27 2 N 0.275444 0.147041 0.100688 5.27358 -6.78698
28 1 Zr 0.416545 0.10081 0.0288699 8.837 -16.6617
29 1 Zr 0.404593 0.989131 0.0898512 8.73669 -16.6025
30 1 Zr 0.505157 0.977465 0.950497 10.327 -14.0784
31 1 Zr 0.607154 0.0957768 0.0110995 9.69057 -14.8134
32 1 Zr 0.609282 0.000641573 0.097196 11.2705 -16.2889
33 1 Zr 0.518384 0.0925837 0.148659 10.6114 -12.9629
34 1 Zr 0.389134 0.211782 0.100197 10.1049 -14.7626
35 1 Zr 0.475631 0.245006 0.975378 7.17793 -14.3702
36 1 Zr 0.60017 0.270052 0.112685 7.1516 -13.875
37 1 Zr 0.410817 0.0569999 0.230701 8.7917 -15.4228
38 1 Zr 0.510472 0.981367 0.272888 6.70178 -16.3399
39 1 Zr 0.637801 0.109673 0.224824 14.3627 -13.0785
40 1 Zr 0.510507 0.256515 0.228106 9.34521 -13.7016
41 2 N 0.389487 0.994989 0.953102 6.42299 -6.07842
42 2 N 0.617572 0.993066 0.945894 8.70247 -5.82325
43 2 N 0.490782 0.111107 0.977744 10.3074 -7.0103
44 2 N 0.362585 0.244734 0.987896 7.78232 -5.90115
45 2 N 0.595394 0.241301 0.990719 6.42782 -5.83252
46 2 N 0.422214 0.115021 0.160366 8.87371 -7.20885
47 2 N 0.357612 0.962677 0.304848 7.83687 -6.1783
48 2 N 0.530974 0.982287 0.139171 9.47862 -7.19125
49 2 N 0.598813 0.155645 0.12842 9.42676 -6.02663
50 2 N 0.599056 0.0142367 0.278093 9.01813 -6.25601
51 2 N 0.52598 0.153496 0.262981 6.54573 -5.66694
52 2 N 0.40698 0.243415 0.274968 11.9326 -5.35319
53 2 N 0.482373 0.259021 0.119874 6.8669 -6.31635
54 2 N 0.634096 0.269001 0.260258 7.50102 -5.36097
55 1 Zr 0.785369 0.00354625 0.951424 8.05523 -19.0698
56 1 Zr 0.844441 0.157612 0.0146197 9.45111 -16.5019
57 1 Zr 0.827466 0.996445 0.13672 8.7351 -19.9058
58 1 Zr 0.843296 0.106986 0.123883 10.1398 -16.1364
59 1 Zr 0.720167 0.24567 0.990158 7.1529 -14.3533
60 1 Zr 0.860486 0.274449 0.126313 6.06147 -15.3681
61 1 Zr 0.737414 -0.00381786 0.189676 14.7104 -20.261
62 1 Zr 0.882347 0.106979 0.267373 7.41207 -16.1407
63 1 Zr 0.767492 0.246363 0.229447 13.907 -14.2546
64 2 N 0.940838 0.0524946 0.0623744 8.77808 -3.67453
65 2 N 0.722101 0.10629 0.98461 6.53477 -5.23942
66 2 N 0.835174 0.245356 0.00229288 9.56573 -7.4016
67 2 N 0.681458 0.0349431 0.151546 10.7111 -9.34814
68 2 N 0.896969 0.138203 0.182625 14.254 -9.83632
69 2 N 0.884238 0.967449 0.181857 8.10706 -8.18915
70 2 N 0.739748 0.152611 0.234784 13.3334 -6.06611
71 2 N 0.720603 0.253729 0.10733 7.83501 -5.57762
72 2 N 0.879552 0.256029 0.292111 6.74503 -5.34212
73 1 Zr 0.0704724 0.407912 0.0285151 7.98328 -14.0914
74 1 Zr 0.0209847 0.364593 0.140091 8.88895 -16.8896
75 1 Zr 0.267354 0.412877 0.126857 8.13091 -13.0748
76 1 Zr 0.949629 0.477618 0.0219885 8.45812 -16.6452
77 1 Zr 0.0442184 0.545113 0.0321496 13.8706 -17.1869
78 1 Zr 0.152086 0.500749 0.118937 7.32569 -14.0029
79 1 Zr 0.0335454 0.607646 0.140285 12.2264 -16.1952
80 1 Zr 0.24587 0.49554 0.00217666 3.42944 -14.2201
81 1 Zr 0.264551 0.638414 0.124484 7.08983 -13.9127
82 1 Zr 0.10835 0.359095 0.231748 14.436 -14.8396
83 1 Zr 0.00574631 0.507294 0.274079 7.39724 -14.1778
84 1 Zr 0.127409 0.604896 0.237708 9.16587 -14.4069
85 1 Zr 0.249708 0.501656 0.240868 9.13618 -14.0457
86 2 N 0.960736 0.398993 0.992229 9.00259 -7.882
87 2 N 0.245844 0.369182 0.979692 6.91548 -5.33651
88 2 N 0.118837 0.507802 0.00771927 11.1972 -7.69447
89 2 N 0.969584 0.637429 0.980075 13.3017 -6.79522
90 2 N 0.270679 0.606367 0.995573 6.04519 -5.84145
91 2 N 0.171939 0.373441 0.112689 9.43088 -7.55266
92 2 N 0.982992 0.378911 0.286656 9.55189 -5.86356
93 2 N 0.243757 0.379627 0.260689 7.12265 -5.27191
94 2 N 0.00245394 0.485222 0.168201 8.87046 -5.63089
95 2 N 0.156733 0.61305 0.111934 8.57582 -6.17298
96 2 N 0.1323 0.496277 0.256983 4.11865 -6.04617
97 2 N 1.00313 0.628915 0.301444 8.83997 -5.12744
98 2 N 0.267218 0.51283 0.12199 7.06175 -7.21605
99 2 N 0.269042 0.625936 0.250027 10.2857 -5.88933
100 1 Zr 0.367954 0.361866 0.981166 9.37582 -13.9743
101 1 Zr 0.616346 0.371767 0.00365959 6.6516 -14.3065
102 1 Zr 0.471552 0.37742 0.136294 7.58234 -14.5243
103 1 Zr 0.391107 0.613398 0.989853 4.39405 -13.9624
104 1 Zr 0.380137 0.501084 0.133409 7.57663 -13.8391
105 1 Zr 0.489298 0.496884 0.99032 7.34707 -14.0914
106 1 Zr 0.6226 0.616441 0.986832 6.66531 -14.2989
107 1 Zr 0.60931 0.504966 0.14143 6.58705 -13.9032
108 1 Zr 0.508601 0.623671 0.140498 5.87096 -14.2988
109 1 Zr 0.359301 0.34215 0.226315 10.9767 -15.3331
110 1 Zr 0.628497 0.376544 0.243273 7.04437 -14.0474
111 1 Zr 0.380948 0.612563 0.23297 8.09006 -14.1823
112 1 Zr 0.498648 0.493435 0.246063 6.38637 -14.2375
113 1 Zr 0.627247 0.625838 0.249553 8.63405 -14.3256
114 2 N 0.488397 0.376833 0.00686517 9.44852 -5.8112
115 2 N 0.365573 0.48242 0.99758 7.65293 -5.96718
116 2 N 0.607557 0.493582 1.00089 9.78416 -6.17883
117 2 N 0.507303 0.61663 1.0002 6.77589 -6.31107
118 2 N 0.354722 0.357249 0.103102 8.50204 -6.04912
119 2 N 0.606972 0.386776 0.123928 4.45421 -6.28027
120 2 N 0.496195 0.377682 0.263704 9.46138 -5.80749
121 2 N 0.393914 0.612819 0.113423 10.5612 -6.56507
122 2 N 0.376007 0.485326 0.254887 9.00469 -5.83165
123 2 N 0.49396 0.495431 0.11898 7.34904 -6.24801
124 2 N 0.621413 0.617805 0.108866 6.61361 -6.21464
125 2 N 0.626809 0.501554 0.262291 9.63351 -5.97134
126 2 N 0.506745 0.612174 0.258089 6.62319 -6.35088
127 1 Zr 0.85395 0.373896 0.0165622 7.84349 -14.6268
128 1 Zr 0.72893 0.374672 0.126395 6.4505 -14.1067
129 1 Zr 0.725458 0.494938 0.986296 7.31162 -13.8882
130 1 Zr 0.866048 0.62047 0.00790478 5.5688 -13.536
131 1 Zr 0.883628 0.487952 0.124683 7.77212 -14.3861
132 1 Zr 0.739054 0.606173 0.136961 7.6599 -13.8368
133 1 Zr 0.872093 0.370695 0.251934 9.3891 -13.6799
134 1 Zr 0.752635 0.492322 0.24642 12.1341 -14.0683
135 1 Zr 0.888068 0.604623 0.270911 5.59486 -14.151
136 2 N 0.731891 0.369164 0.996019 9.98341 -6.20132
137 2 N 0.83806 0.500577 0.980869 8.85241 -6.31421
138 2 N 0.738468 0.627159 1.00125 4.01299 -5.9964
139 2 N 0.840371 0.392717 0.142701 9.89549 -6.53388
140 2 N 0.748701 0.372766 0.271216 6.62339 -5.82048
141 2 N 0.72625 0.489896 0.112392 5.96232 -5.81032
142 2 N 0.84838 0.581003 0.137911 8.91198 -6.22493
143 2 N 0.87075 0.484796 0.267859 6.29673 -6.06641
144 2 N 0.749309 0.604359 0.259148 3.69978 -6.18522
145 1 Zr 0.00349102 0.839489 0.0505379 9.88378 -19.6873
146 1 Zr 0.114196 0.882522 0.00880712 12.9705 -16.5174
147 1 Zr 0.139826 0.732223 0.114861 8.90405 -13.5525
148 1 Zr 0.978625 0.824929 0.163733 16.4254 -16.5079
149 1 Zr 0.290213 0.7321 0.00860559 7.20569 -13.4465
150 1 Zr 0.215286 0.924285 0.0808686 5.8311 -19.2564
151 1 Zr 0.0391437 0.737153 0.231423 12.8308 -16.4898
152 1 Zr 0.150556 0.898666 0.224509 11.5201 -13.4473
153 1 Zr 0.251784 0.753199 0.253198 6.70363 -13.9958
154 2 N 0.176835 0.734601 0.00811254 7.39616 -5.82013
155 2 N 0.969289 0.944146 0.97319 10.6505 -7.8186
156 2 N 0.306408 0.845875 0.00577809 9.15512 -5.83745
157 2 N 0.977192 0.675037 0.146686 13.9367 -6.67024
158 2 N 0.136664 0.840279 0.131848 11.0325 -5.81336
159 2 N 0.144064 0.7259 0.230863 7.04281 -6.08796
160 2 N 0.0382614 0.888413 0.238494 15.1044 -7.53904
161 2 N 0.276596 0.75063 0.127992 7.98176 -5.90926
162 2 N 0.261785 0.867887 0.241335 12.7419 -5.71228
163 1 Zr 0.401767 0.883924 0.0204802 10.9365 -14.3279
164 1 Zr 0.391067 0.727171 0.128417 5.25104 -13.8361
165 1 Zr 0.53039 0.735388 0.987136 10.0251 -14.2323
166 1 Zr 0.654657 0.900953 0.032586 11.2102 -14.7387
167 1 Zr 0.632837 0.737337 0.1468 6.674 -13.8489
168 1 Zr 0.513893 0.863221 0.129803 7.30468 -13.8213
169 1 Zr 0.369438 0.856546 0.273556 6.38318 -13.6047
170 1 Zr 0.507235 0.732316 0.243252 9.42721 -14.1689
171 1 Zr 0.7062 0.888621 0.206831 12.4749 -13.7192
172 2 N 0.403768 0.730935 0.989798 8.08592 -6.07426
173 2 N 0.648886 0.765109 0.00587001 7.84685 -5.59475
174 2 N 0.51257 0.86164 0.990139 9.30001 -5.523
175 2 N 0.402614 0.841886 0.133926 8.44455 -5.35548
176 2 N 0.385013 0.732488 0.251241 1.00686 -5.9133
177 2 N 0.519862 0.743536 0.105163 7.68556 -6.00601
178 2 N 0.642884 0.852936 0.151593 11.7675 -6.65264
179 2 N 0.622483 0.745182 0.264653 8.80577 -5.9687
180 2 N 0.506126 0.851738 0.243637 6.13874 -5.54392
181 1 Zr 0.762641 0.740734 -0.00143286 10.0961 -14.6575
182 1 Zr 0.906423 0.883478 3.69142e-05 9.28878 -19.1035
183 1 Zr 0.866993 0.704639 0.160353 5.87677 -13.3181
184 1 Zr 0.814005 0.938896 0.0426612 12.3191 -20.1757
185 1 Zr 0.747161 0.723101 0.264817 7.59035 -13.779
186 1 Zr 0.857867 0.872654 0.25084 11.4131 -13.7681
187 2 N 0.874693 0.725136 0.0444796 10.812 -5.2515
188 2 N 0.752385 0.885644 0.0450614 8.95607 -7.96928
189 2 N 0.748328 0.731629 0.138359 6.76944 -5.56936
190 2 N 0.89156 0.821195 0.16998 9.63062 -7.32542
191 2 N 0.873901 0.713621 0.279382 6.36541 -5.47949
192 2 N 0.755241 0.836809 0.261755 11.5515 -7.58491
193 1 Zr 0.125107 0.0289298 0.305733 5.86118 -15.6337
194 1 Zr 0.991119 0.143557 0.370381 10.1736 -13.9778
195 1 Zr 0.250542 0.133603 0.339555 7.80018 -14.7497
196 1 Zr 0.146571 0.270243 0.385674 7.8262 -14.0944
197 1 Zr -0.000773156 0.010509 0.508784 6.04067 -13.9459
198 1 Zr 0.134668 0.138243 0.514017 7.13901 -14.7335
199 1 Zr 0.118688 1.00065 0.606255 6.30575 -13.9713
200 1 Zr -0.000881341 0.150369 0.634893 6.06915 -14.1021
201 1 Zr 0.247013 0.979946 0.476042 8.12717 -14.8515
202 1 Zr 0.239678 0.104368 0.606782 9.15884 -15.0998
203 1 Zr 0.991027 0.263663 0.505506 3.93315 -14.4551
204 1 Zr 0.111632 0.253227 0.628684 7.63262 -14.2343
205 1 Zr 0.245347 0.241988 0.502189 7.58128 -13.9619
206 2 N 0.00331235 0.0315758 0.403926 9.45991 -5.39545
207 2 N 0.128357 0.143039 0.38695 9.75227 -5.1691
208 2 N 0.13718 0.00603867 0.49713 11.4378 -6.65214
209 2 N 1.00156 0.137914 0.520156 8.96137 -5.61093
210 2 N 0.208133 0.000451346 0.349401 9.29233 -6.07535
211 2 N 0.26907 0.119336 0.480974 7.96222 -5.53597
212 2 N 0.00546363 0.254983 0.389664 7.74686 -6.05312
213 2 N 0.123227 0.242383 0.508064 1.73226 -6.44732
214 2 N 0.261894 0.252509 0.387955 7.87665 -5.80726
215 2 N 0.00554659 0.0115996 0.628821 11.6589 -5.54903
216 2 N 0.117982 0.128431 0.654471 8.12569 -7.16399
217 2 N 0.244639 0.993365 0.614001 4.71614 -6.00132
218 2 N 0.989115 0.276257 0.62717 4.75333 -6.31094
219 2 N 0.235904 0.245503 0.626243 7.43725 -5.89801
220 1 Zr 0.347127 0.0230065 0.385447 9.43339 -14.6905
221 1 Zr 0.623567 0.0103357 0.388966 4.90898 -14.2133
222 1 Zr 0.503818 0.128413 0.367939 5.89267 -13.9033
223 1 Zr 0.391762 0.244276 0.383183 7.19386 -13.9144
224 1 Zr 0.633252 0.247466 0.387677 7.46345 -14.2169
225 1 Zr 0.382647 0.128812 0.481052 6.31379 -14.215
226 1 Zr 0.361995 0.0249764 0.609451 8.05286 -14.1322
227 1 Zr 0.508092 0.0110629 0.505194 10.9453 -13.9745
228 1 Zr 0.629536 0.131487 0.500288 4.18922 -14.0021
229 1 Zr 0.640333 0.0274984 0.610305 8.77087 -14.205
230 1 Zr 0.479774 0.118129 0.605976 8.05555 -14.3027
231 1 Zr 0.357949 0.259177 0.626599 10.1152 -13.9525
232 1 Zr 0.487765 0.261531 0.498089 7.40017 -13.9472
233 1 Zr 0.612901 0.258234 0.634821 8.75407 -14.1646
234 2 N 0.37042 0.123552 0.368208 7.60098 -6.36645
235 2 N 0.38351 0.988651 0.510906 7.84663 -6.08906
236 2 N 0.489001 0.0154088 0.396813 6.16689 -5.92404
237 2 N 0.627833 0.12887 0.380509 7.38412 -5.61662
238 2 N 0.63162 0.992235 0.504112 9.26739 -6.24593
239 2 N 0.505235 0.137994 0.494814 7.86527 -6.18768
240 2 N 0.365191 0.260824 0.509048 6.12172 -6.17955
241 2 N 0.510021 0.253416 0.385956 7.36945 -6.13476
242 2 N 0.613862 0.261168 0.509598 7.10216 -6.02526
243 2 N 0.368772 0.141895 0.611258 8.43098 -6.41265
244 2 N 0.500349 -0.000826713 0.62272 5.16316 -6.18788
245 2 N 0.611858 0.138223 0.613464 6.47822 -6.28475
246 2 N 0.490804 0.249297 0.620449 10.1502 -5.97708
247 1 Zr 0.921786 0.980085 0.30181 8.82856 -19.126
248 1 Zr 0.76791 0.0463012 0.288646 11.4681 -15.8716
249 1 Zr 0.875108 0.250831 0.400066 9.00458 -13.6911
250 1 Zr 0.752031 0.00830017 0.46795 8.52143 -14.5178
251 1 Zr 0.868184 0.108272 0.517122 10.5558 -14.3962
252 1 Zr 0.886236 0.975679 0.598093 9.75742 -14.6096
253 1 Zr 0.758259 0.134233 0.616407 4.24527 -14.7549
254 1 Zr 0.737192 0.251154 0.495442 5.69594 -14.1941
255 1 Zr 0.861086 0.267519 0.636572 9.76641 -14.2188
256 2 N 0.782455 0.99102 0.353814 11.7765 -7.17303
257 2 N 0.879056 0.130009 0.412159 7.6611 -5.42841
258 2 N 0.877699 0.994312 0.483263 7.48145 -6.15099
259 2 N 0.745482 0.127273 0.490167 5.68171 -5.79271
260 2 N 0.74968 0.245816 0.378277 5.94261 -5.5638
261 2 N 0.865959 0.243452 0.523831 8.67618 -5.97779
262 2 N 0.76056 0.00503729 0.592674 8.02317 -5.94481
263 2 N 0.887276 0.142695 0.650868 8.01968 -5.96945
264 2 N 0.73304 0.247573 0.618584 4.81724 -6.12641
265 1 Zr 0.986815 0.373868 0.39944 9.25113 -13.7519
266 1 Zr 0.252423 0.379535 0.383416 6.87412 -14.6065
267 1 Zr 0.113342 0.510263 0.378356 5.91279 -14.1833
268 1 Zr 0.0543277 0.649712 0.426392 10.0595 -16.0196
269 1 Zr 0.2665 0.618247 0.379598 9.98158 -13.6851
270 1 Zr 0.108111 0.367927 0.496918 7.24171 -14.0246
271 1 Zr 0.984264 0.396597 0.63539 6.93527 -13.9832
272 1 Zr 0.24147 0.371433 0.629165 10.7932 -13.9821
273 1 Zr 0.985749 0.530332 0.495552 7.73082 -14.2279
274 1 Zr 0.147406 0.600969 0.514236 9.44511 -16.6443
275 1 Zr 0.097107 0.512985 0.617632 8.23655 -14.5257
276 1 Zr 0.0121159 0.639763 0.640019 5.95699 -14.0792
277 1 Zr 0.242087 0.494735 0.479375 6.49043 -14.9016
278 1 Zr 0.261296 0.618756 0.631872 6.4224 -14.0861
279 2 N 0.119256 0.385861 0.378442 6.32133 -5.67831
280 2 N 0.99406 0.390473 0.516486 5.37192 -6.22385
281 2 N 0.240008 0.366982 0.510104 6.62822 -5.76529
282 2 N -0.00159282 0.493848 0.394723 5.81859 -6.49317
283 2 N 0.156341 0.621181 0.363943 7.516 -5.6052
284 2 N 0.118103 0.483614 0.496474 6.34497 -6.05813
285 2 N 0.986207 0.644987 0.514714 6.46507 -6.25966
286 2 N 0.253804 0.501646 0.360893 8.70448 -6.09979
287 2 N 0.261262 0.626053 0.506428 7.47142 -6.1258
288 2 N 0.117964 0.381309 0.623039 7.31869 -5.6634
289 2 N 0.987984 0.517141 0.618005 7.1542 -6.23555
290 2 N 0.137748 0.627638 0.632524 6.11367 -6.02966
291 2 N 0.240483 0.496733 0.612031 6.45194 -5.71866
292 1 Zr 0.488124 0.368963 0.38332 8.58245 -14.1957
293 1 Zr 0.380001 0.484424 0.375779 9.856 -14.0454
294 1 Zr 0.628724 0.497798 0.388364 9.11508 -14.2102
295 1 Zr 0.500256 0.62447 0.381745 6.7378 -13.979
296 1 Zr 0.373297 0.374991 0.480981 7.53738 -14.4109
297 1 Zr 0.626214 0.380936 0.494823 9.80508 -14.2778
298 1 Zr 0.48808 0.373535 0.627045 7.60353 -14.3356
299 1 Zr 0.382062 0.616933 0.487187 9.08654 -14.5431
300 1 Zr 0.364753 0.499428 0.626994 6.8562 -14.2326
301 1 Zr 0.485648 0.506668 0.492447 10.1501 -14.2815
302 1 Zr 0.627926 0.625628 0.490529 8.66012 -14.1788
303 1 Zr 0.609964 0.505794 0.636554 8.79802 -14.0907
304 1 Zr 0.498059 0.631362 0.635833 6.8438 -14.3588
305 2 N 0.367331 0.371428 0.363003 8.92605 -6.28132
306 2 N 0.61343 0.378767 0.376285 9.83655 -5.99252
307 2 N 0.496046 0.384578 0.507233 6.9583 -6.07837
308 2 N 0.386247 0.607364 0.363649 9.33303 -6.24638
309 2 N 0.361126 0.495355 0.501136 7.47645 -6.116
310 2 N 0.504499 0.498348 0.374126 7.58197 -5.98
311 2 N 0.620971 0.622453 0.369671 6.27324 -6.13209
312 2 N 0.612707 0.500552 0.509094 9.70276 -6.06184
313 2 N 0.50385 0.627 0.508702 9.36278 -6.00972
314 2 N 0.365715 0.379578 0.613722 6.69832 -6.16883
315 2 N 0.610973 0.381129 0.622082 9.62785 -6.02715
316 2 N 0.379589 0.616453 0.616732 7.2549 -6.29357
317 2 N 0.490325 0.502232 0.617073 6.59235 -6.02129
318 2 N 0.627028 0.620054 0.618171 9.63843 -6.02265
319 1 Zr 0.735899 0.372114 0.390671 9.03575 -14.186
320 1 Zr 0.881695 0.493932 0.386797 7.22574 -13.8487
321 1 Zr 0.738977 0.619912 0.388391 4.12905 -14.2105
322 1 Zr 0.875697 0.367267 0.520998 10.6119 -14.2366
323 1 Zr 0.734444 0.375013 0.640055 5.95832 -14.2083
324 1 Zr 0.735736 0.497556 0.494542 9.12365 -14.3115
325 1 Zr 0.868711 0.620051 0.51787 7.44322 -14.0796
326 1 Zr 0.861157 0.517053 0.644086 4.82188 -14.8705
327 1 Zr 0.755278 0.623706 0.628261 3.81695 -14.3863
328 2 N 0.857514 0.374023 0.392805 4.29769 -5.82406
329 2 N 0.749256 0.370434 0.51438 9.22033 -6.00578
330 2 N 0.749546 0.494287 0.374036 9.55644 -5.98726
331 2 N 0.866331 0.60897 0.393705 4.74398 -5.57629
332 2 N 0.862365 0.489494 0.51026 6.74839 -5.71006
333 2 N 0.747242 0.617163 0.507774 6.87244 -6.25163
334 2 N 0.857713 0.39053 0.636384 6.2713 -6.0841
335 2 N 0.733868 0.496523 0.617186 6.8237 -5.94561
336 2 N 0.878093 0.64036 0.637357 8.27827 -5.7348
337 1 Zr 0.0586612 0.760418 0.355417 10.0371 -19.3568
338 1 Zr 0.0338185 0.875693 0.401364 6.59418 -22.1436
339 1 Zr 0.247378 0.87235 0.372322 5.66362 -13.9873
340 1 Zr 1.00065 0.763875 0.516554 7.80471 -13.823
341 1 Zr 0.123475 0.907998 0.490404 10.4976 -14.765
342 1 Zr 0.125817 0.745238 0.629516 4.0051 -14.1628
343 1 Zr 0.997987 0.834147 0.678015 7.05063 -17.3751
344 1 Zr 0.250552 0.745636 0.491046 4.59511 -14.0826
345 1 Zr 0.260344 0.868582 0.614652 9.34382 -14.0998
346 2 N 0.958336 0.757354 0.407955 5.39331 -5.70356
347 2 N 0.1471 0.851404 0.352612 8.84613 -5.46892
348 2 N 0.130209 0.738215 0.508713 9.08689 -5.24999
349 2 N 0.0104595 0.880521 0.528879 8.40565 -5.50706
350 2 N 0.258515 0.742992 0.372768 7.17546 -5.82781
351 2 N 0.250399 0.868331 0.489667 4.81992 -6.39232
352 2 N 0.999412 0.763555 0.629929 8.22666 -8.28848
353 2 N 0.148631 0.859477 0.610067 8.98463 -5.57961
354 2 N 0.251883 0.742608 0.619619 6.53754 -5.95108
355 1 Zr 0.379861 0.729294 0.384421 6.76557 -14.0528
356 1 Zr 0.615371 0.762808 0.388364 10.1106 -14.1725
357 1 Zr 0.483017 0.881598 0.368074 7.31114 -14.6857
358 1 Zr 0.370667 0.874754 0.512077 7.09501 -14.2888
359 1 Zr 0.374182 0.73654 0.635937 6.85956 -14.1637
360 1 Zr 0.496622 0.752288 0.493541 6.43979 -14.0628
361 1 Zr 0.619279 0.867318 0.497162 10.2695 -14.4484
362 1 Zr 0.612591 0.7438 0.640663 6.24896 -14.1853
363 1 Zr 0.486343 0.882393 0.613594 11.941 -13.9352
364 2 N 0.380412 0.842544 0.38676 9.7748 -6.12392
365 2 N 0.374738 0.742215 0.510604 6.3836 -5.87823
366 2 N 0.500695 0.744267 0.368625 6.79544 -6.10644
367 2 N 0.615196 0.886421 0.372655 6.6741 -5.50348
368 2 N 0.613914 0.741822 0.509186 7.08701 -6.25074
369 2 N 0.494992 0.875702 0.48959 4.5594 -5.96969
370 2 N 0.37682 0.858612 0.632796 8.47589 -6.2095
371 2 N 0.496437 0.751729 0.614457 6.06111 -6.08451
372 2 N 0.607974 0.873294 0.620036 9.44461 -5.72396
373 1 Zr 0.848528 0.748097 0.398806 9.19285 -13.3974
374 1 Zr 0.741663 0.887021 0.365208 7.02269 -13.5376
375 1 Zr 0.735425 0.753083 0.502726 7.36345 -13.8938
376 1 Zr 0.909923 0.89273 0.457341 10.9179 -14.5082
377 1 Zr 0.891038 0.765537 0.622947 8.77863 -13.6933
378 1 Zr 0.72864 0.888117 0.595908 8.00964 -14.0609
379 2 N 0.728782 0.739402 0.382152 8.01017 -6.24663
380 2 N 0.856158 0.8595 0.377176 8.73057 -6.20103
381 2 N 0.852613 0.739548 0.519326 9.42324 -5.84688
382 2 N 0.740418 0.871789 0.480146 4.24152 -5.9112
383 2 N 0.729925 0.746894 0.619114 3.88153 -5.71296
384 2 N 0.848506 0.873895 0.59685 7.67013 -5.57409
385 1 Zr 0.0184695 0.0485415 0.778502 13.6852 -16.7771
386 1 Zr 0.122513 0.0892326 0.733815 9.16532 -16.5557
387 1 Zr 0.097415 0.0764905 0.94514 13.4764 -15.8328
388 1 Zr 0.00122067 0.207249 0.851863 9.4895 -16.0391
389 1 Zr 0.231585 0.0184561 0.74996 10.5642 -14.1345
390 1 Zr 0.249297 0.10995 0.859577 6.7999 -13.8365
391 1 Zr 0.00328252 0.281623 0.740288 7.25641 -14.2266
392 1 Zr 0.111445 0.278651 0.89145 10.1402 -15.8988
393 1 Zr 0.246901 0.244095 0.749886 5.01207 -14.046
394 2 N 0.126296 0.960548 0.71795 13.4766 -6.38309
395 2 N 0.00226176 0.177622 0.765407 10.6155 -6.7719
396 2 N 0.27409 0.134796 0.733859 10.7244 -5.92219
397 2 N 0.129862 0.265497 0.743819 5.45708 -5.6545
398 2 N 0.0199823 0.988602 0.839721 10.8243 -6.93426
399 2 N 0.12339 0.118288 0.869297 11.207 -6.28116
400 2 N 0.259863 0.996198 0.839967 7.97056 -6.48
401 2 N 0.994515 0.330959 0.865836 5.66296 -6.15045
402 2 N 0.247445 0.230384 0.878095 7.60621 -5.56738
403 1 Zr 0.387197 0.127409 0.727583 6.63387 -14.2091
404 1 Zr 0.387146 0.997104 0.842391 7.68811 -13.7496
405 1 Zr 0.497634 0.0267642 0.730557 7.61081 -13.7861
406 1 Zr 0.630735 0.127863 0.728292 9.82148 -13.9092
407 1 Zr 0.648854 0.991964 0.842509 9.52128 -13.7331
408 1 Zr 0.502033 0.111728 0.861232 4.58722 -14.1174
409 1 Zr 0.369584 0.250813 0.873027 4.21179 -14.3775
410 1 Zr 0.501626 0.259919 0.740568 6.72067 -13.9369
411 1 Zr 0.626702 0.221559 0.876638 8.88981 -14.4473
412 2 N 0.369795 0.990317 0.719617 7.91073 -5.91072
413 2 N 0.616742 1.00007 0.724695 4.41241 -6.19244
414 2 N 0.506841 0.140973 0.737369 9.55448 -6.23203
415 2 N 0.377032 0.254954 0.748215 9.72462 -5.94507
416 2 N 0.630329 0.257599 0.758117 6.40111 -5.96976
417 2 N 0.380072 0.128008 0.85776 6.30427 -5.41917
418 2 N 0.508475 0.989446 0.835187 3.40675 -6.35807
419 2 N 0.619759 0.116777 0.846937 8.10195 -6.18997
420 2 N 0.503033 0.241685 0.86208 4.49583 -6.10836
421 1 Zr 0.74191 0.992767 0.71698 8.87618 -13.8083
422 1 Zr 0.913164 0.0589717 0.711045 14.1124 -15.365
423 1 Zr 0.871501 0.0851979 0.92717 12.9149 -20.2014
424 1 Zr 0.744577 0.121066 0.85456 4.84142 -13.7353
425 1 Zr 0.756528 0.25368 0.743415 4.59521 -14.0551
426 1 Zr 0.882186 0.265123 0.894937 11.5738 -14.9855
427 2 N 0.853683 0.972883 0.719125 12.3365 -6.57731
428 2 N 0.745313 0.13348 0.731943 6.96039 -5.8908
429 2 N 0.874272 0.271836 0.755577 7.59956 -5.81725
430 2 N 0.756506 0.0143476 0.829836 8.55265 -6.36446
431 2 N 0.869172 0.120069 0.856139 11.3054 -7.79594
432 2 N 0.758223 0.240282 0.861313 7.45377 -5.91307
433 1 Zr 0.115629 0.384701 0.753169 8.97572 -14.0788
434 1 Zr -0.000612653 0.425211 0.877632 6.13572 -15.8304
435 1 Zr 0.259967 0.359618 0.866395 7.76835 -13.8736
436 1 Zr 0.962694 0.55354 0.746854 8.14197 -14.2011
437 1 Zr 0.101203 0.612361 0.769422 12.3554 -14.4849
438 1 Zr 0.117552 0.501565 0.868221 7.77387 -15.3391
439 1 Zr 0.00376349 0.680771 0.912056 11.8475 -16.2773
440 1 Zr 0.25565 0.490374 0.733445 7.00266 -14.1107
441 1 Zr 0.268391 0.614245 0.874484 7.55013 -13.8291
442 2 N 0.994708 0.425545 0.747167 4.50661 -5.88578
443 2 N 0.256155 0.367933 0.744103 6.55299 -6.07721
444 2 N 0.139137 0.497181 0.736529 10.9226 -5.82861
445 2 N 0.998074 0.658433 0.744797 11.0591 -6.01334
446 2 N 0.249486 0.612274 0.750569 6.4174 -5.90771
447 2 N 0.142458 0.366119 0.862808 11.031 -6.31415
448 2 N 0.00544664 0.557567 0.854397 8.06925 -5.50246
449 2 N 0.152991 0.615198 0.881312 9.39847 -5.41307
450 2 N 0.251889 0.488062 0.867358 3.76416 -5.59497
451 1 Zr 0.382216 0.378732 0.733481 6.69078 -14.401
452 1 Zr 0.631373 0.376709 0.747767 5.47004 -14.3374
453 1 Zr 0.495401 0.360175 0.881475 6.97956 -14.2311
454 1 Zr 0.37374 0.630641 0.742174 6.66288 -14.3749
455 1 Zr 0.374596 0.500012 0.877495 9.96838 -14.2146
456 1 Zr 0.496772 0.49252 0.737116 9.17068 -13.919
457 1 Zr 0.628663 0.635876 0.740698 7.57746 -14.3281
458 1 Zr 0.615883 0.508023 0.88014 10.4943 -14.2474
459 1 Zr 0.501942 0.619413 0.878004 9.95677 -13.9553
460 2 N 0.506827 0.377603 0.751498 6.57676 -6.21413
461 2 N 0.375613 0.506161 0.753417 9.61764 -6.05871
462 2 N 0.617374 0.501931 0.757628 9.41361 -6.0749
463 2 N 0.498894 0.613922 0.752589 10.0707 -6.10637
464 2 N 0.381466 0.377603 0.855171 9.16658 -6.17361
465 2 N 0.610499 0.374123 0.876558 4.39464 -5.76953
466 2 N 0.385679 0.627594 0.864035 6.97772 -6.07278
467 2 N 0.494456 0.493257 0.866449 10.541 -5.96879
468 2 N 0.615087 0.631455 0.860033 9.37943 -6.32701
469 1 Zr 0.885945 0.384083 0.762173 7.1083 -14.0223
470 1 Zr 0.729261 0.360341 0.87359 7.99021 -13.7665
471 1 Zr 0.738773 0.498859 0.741917 8.6636 -13.9609
472 1 Zr 0.878131 0.666558 0.778296 13.9969 -15.2002
473 1 Zr 0.884043 0.498645 0.884774 9.10203 -14.7186
474 1 Zr 0.73219 0.623097 0.874173 8.70587 -13.8378
475 2 N 0.750737 0.377736 0.754176 5.38029 -6.27691
476 2 N 0.853847 0.499576 0.759593 6.68706 -6.07169
477 2 N 0.749634 0.62413 0.75002 6.78876 -5.77601
478 2 N 0.841259 0.369137 0.883629 6.8629 -5.74508
479 2 N 0.733002 0.493206 0.865195 7.07759 -5.74702
480 2 N 0.847638 0.612294 0.88077 8.90077 -5.47613
481 1 Zr 0.93389 0.750817 0.850455 6.68542 -20.273
482 1 Zr 0.104328 0.869964 0.728585 9.75666 -14.3169
483 1 Zr 0.12514 0.733847 0.920561 10.1198 -14.1938
484 1 Zr 0.996114 0.88423 0.880472 11.5666 -13.0707
485 1 Zr 0.252024 0.736164 0.746325 10.2178 -13.8416
486 1 Zr 0.274393 0.876123 0.876694 10.816 -15.8743
487 2 N 0.137071 0.72732 0.762809 9.10324 -5.02616
488 2 N 0.979875 0.804472 0.81196 13.1715 -8.12839
489 2 N 0.23239 0.853701 0.756772 9.02117 -5.37474
490 2 N 0.0282983 0.768509 1.00096 9.83171 -5.97507
491 2 N 0.137233 0.854871 0.923052 14.3819 -5.92354
492 2 N 0.255465 0.739298 0.867197 7.35006 -5.48166
493 1 Zr 0.350497 0.881407 0.748332 8.83698 -14.2081
494 1 Zr 0.374432 0.765452 0.88955 13.0797 -14.3459
495 1 Zr 0.498883 0.737177 0.744322 6.55011 -14.1365
496 1 Zr 0.620434 0.879836 0.743276 6.41957 -14.2769
497 1 Zr 0.645979 0.754197 0.886001 7.09238 -14.2235
498 1 Zr 0.518783 0.867828 0.850694 7.31235 -14.5279
499 2 N 0.376205 0.750748 0.756969 6.89807 -5.94497
500 2 N 0.61224 0.750838 0.75672 10.3183 -6.45222
501 2 N 0.499649 0.863991 0.738817 5.32215 -5.57215
502 2 N 0.398046 0.87819 0.856224 7.91336 -5.97688
503 2 N 0.49947 0.749392 0.86524 4.63512 -5.75116
504 2 N 0.671818 0.86508 0.866199 8.57226 -6.32998
19 2 N 0.888479 0.911579 0.849975 8.71651 -5.20835
505 1 Zr 0.729424 0.763152 0.741128 8.00491 -13.6763
506 1 Zr 0.890608 0.877729 0.736266 9.97953 -14.5686
507 1 Zr 0.854329 0.807802 0.923987 8.01392 -22.0382
508 1 Zr 0.761531 0.892873 0.878126 5.94311 -16.5204
509 2 N 0.841418 0.76856 0.728743 8.48031 -5.8224
510 2 N 0.734261 0.875026 0.713768 8.2504 -5.7651
511 2 N 0.755917 0.738348 0.863857 9.04247 -5.70907
