LAMMPS (23 Jun 2022)
Lattice spacing in x,y,z = 4.54 4.54 4.54
Created orthogonal box = (0 0 0) to (9.08 9.08 9.08)
  1 by 1 by 1 MPI processor grid
Lattice spacing in x,y,z = 4.54 4.54 4.54
Created 32 atoms
  using lattice units in orthogonal box = (0 0 0) to (9.08 9.08 9.08)
  create_atoms CPU = 0.000 seconds
Lattice spacing in x,y,z = 4.54 4.54 4.54
Created 32 atoms
  using lattice units in orthogonal box = (0 0 0) to (9.08 9.08 9.08)
  create_atoms CPU = 0.000 seconds
Reading MEAM library file library_HfN.meam with DATE: 2015-02-12
WARNING: Using 'neigh_modify every 1 delay 0 check yes' setting during minimization (src/min.cpp:187)
Neighbor list info ...
  update every 1 steps, delay 0 steps, check yes
  max neighbors/atom: 2000, page size: 100000
  master list distance cutoff = 9.38
  ghost atom cutoff = 9.38
  binsize = 4.69, bins = 2 2 2
  3 neighbor lists, perpetual/occasional/extra = 2 1 0
  (1) pair meam, perpetual
      attributes: full, newton on
      pair build: full/bin/atomonly
      stencil: full/bin/3d
      bin: standard
  (2) pair meam, perpetual, half/full from (1)
      attributes: half, newton on
      pair build: halffull/newton
      stencil: none
      bin: none
  (3) compute centro/atom, occasional, copy from (1)
      attributes: full, newton on
      pair build: copy
      stencil: none
      bin: none
Setting up cg style minimization ...
  Unit style    : metal
  Current step  : 0
Per MPI rank memory allocation (min/avg/max) = 12.28 | 12.28 | 12.28 Mbytes
   Step         PotEng           Lx             Ly             Lz           Press           Pxx            Pyy            Pzz          c_eatoms   
         0  -653.43829      9.08           9.08           9.08          -5534.3627     -5534.3627     -5534.3627     -5534.3627     -653.43829    
         1  -653.43829      9.08           9.08           9.08          -5534.3627     -5534.3627     -5534.3627     -5534.3627     -653.43829    
Loop time of 0.00744467 on 1 procs for 1 steps with 64 atoms

96.3% CPU use with 1 MPI tasks x no OpenMP threads

Minimization stats:
  Stopping criterion = energy tolerance
  Energy initial, next-to-last, final = 
     -653.438289814606  -653.438289814606  -653.438289814606
  Force two-norm initial, final = 3.0486485e-14 3.1614852e-14
  Force max component initial, final = 5.413565e-15 9.9850683e-15
  Final line search alpha, max atom move = 1 9.9850683e-15
  Iterations, force evaluations = 1 2

MPI task timing breakdown:
Section |  min time  |  avg time  |  max time  |%varavg| %total
---------------------------------------------------------------
Pair    | 0.0067042  | 0.0067042  | 0.0067042  |   0.0 | 90.05
Neigh   | 0          | 0          | 0          |   0.0 |  0.00
Comm    | 2.2709e-05 | 2.2709e-05 | 2.2709e-05 |   0.0 |  0.31
Output  | 0          | 0          | 0          |   0.0 |  0.00
Modify  | 0          | 0          | 0          |   0.0 |  0.00
Other   |            | 0.0007177  |            |       |  9.64

Nlocal:             64 ave          64 max          64 min
Histogram: 1 0 0 0 0 0 0 0 0 0
Nghost:           2133 ave        2133 max        2133 min
Histogram: 1 0 0 0 0 0 0 0 0 0
Neighs:           9728 ave        9728 max        9728 min
Histogram: 1 0 0 0 0 0 0 0 0 0
FullNghs:        19456 ave       19456 max       19456 min
Histogram: 1 0 0 0 0 0 0 0 0 0

Total # of neighbors = 19456
Ave neighs/atom = 304
Neighbor list builds = 0
Dangerous builds = 0
WARNING: No fixes with time integration, atoms won't move (src/verlet.cpp:60)
Setting up Verlet run ...
  Unit style    : metal
  Current step  : 1
  Time step     : 0.001
Per MPI rank memory allocation (min/avg/max) = 11.16 | 11.16 | 11.16 Mbytes
   Step         PotEng           Lx             Ly             Lz           Press           Pxx            Pyy            Pzz          c_eatoms   
         1  -653.43829      9.08           9.08           9.08          -5534.3627     -5534.3627     -5534.3627     -5534.3627     -653.43829    
Loop time of 6.67e-07 on 1 procs for 0 steps with 64 atoms

149.9% CPU use with 1 MPI tasks x no OpenMP threads

MPI task timing breakdown:
Section |  min time  |  avg time  |  max time  |%varavg| %total
---------------------------------------------------------------
Pair    | 0          | 0          | 0          |   0.0 |  0.00
Neigh   | 0          | 0          | 0          |   0.0 |  0.00
Comm    | 0          | 0          | 0          |   0.0 |  0.00
Output  | 0          | 0          | 0          |   0.0 |  0.00
Modify  | 0          | 0          | 0          |   0.0 |  0.00
Other   |            | 6.67e-07   |            |       |100.00

Nlocal:             64 ave          64 max          64 min
Histogram: 1 0 0 0 0 0 0 0 0 0
Nghost:           2133 ave        2133 max        2133 min
Histogram: 1 0 0 0 0 0 0 0 0 0
Neighs:           9728 ave        9728 max        9728 min
Histogram: 1 0 0 0 0 0 0 0 0 0
FullNghs:        19456 ave       19456 max       19456 min
Histogram: 1 0 0 0 0 0 0 0 0 0

Total # of neighbors = 19456
Ave neighs/atom = 304
Neighbor list builds = 0
Dangerous builds = 0
Deleted 1 atoms, new total = 63
WARNING: Using 'neigh_modify every 1 delay 0 check yes' setting during minimization (src/min.cpp:187)
Setting up cg style minimization ...
  Unit style    : metal
  Current step  : 0
Per MPI rank memory allocation (min/avg/max) = 12.28 | 12.28 | 12.28 Mbytes
   Step         PotEng           Lx             Ly             Lz           Press           Pxx            Pyy            Pzz          c_eatoms   
         0  -647.28946      9.08           9.08           9.08          -62274.679     -62274.679     -62274.679     -62274.679     -647.28946    
        10  -648.8706       9.08           9.08           9.08          -22115.333     -22115.333     -22115.333     -22115.333     -648.8706     
        20  -648.87062      9.08           9.08           9.08          -21973.953     -21973.953     -21973.953     -21973.953     -648.87062    
        24  -648.87062      9.08           9.08           9.08          -21973.968     -21973.968     -21973.968     -21973.968     -648.87062    
Loop time of 0.0760725 on 1 procs for 24 steps with 63 atoms

99.8% CPU use with 1 MPI tasks x no OpenMP threads

Minimization stats:
  Stopping criterion = energy tolerance
  Energy initial, next-to-last, final = 
     -647.289456164425  -648.870615404949   -648.87061540495
  Force two-norm initial, final = 6.6171423 6.8276567e-07
  Force max component initial, final = 1.2841023 1.943883e-07
  Final line search alpha, max atom move = 1 1.943883e-07
  Iterations, force evaluations = 24 47

MPI task timing breakdown:
Section |  min time  |  avg time  |  max time  |%varavg| %total
---------------------------------------------------------------
Pair    | 0.075273   | 0.075273   | 0.075273   |   0.0 | 98.95
Neigh   | 0          | 0          | 0          |   0.0 |  0.00
Comm    | 0.00026362 | 0.00026362 | 0.00026362 |   0.0 |  0.35
Output  | 1.5958e-05 | 1.5958e-05 | 1.5958e-05 |   0.0 |  0.02
Modify  | 0          | 0          | 0          |   0.0 |  0.00
Other   |            | 0.0005198  |            |       |  0.68

Nlocal:             63 ave          63 max          63 min
Histogram: 1 0 0 0 0 0 0 0 0 0
Nghost:           2086 ave        2086 max        2086 min
Histogram: 1 0 0 0 0 0 0 0 0 0
Neighs:           9427 ave        9427 max        9427 min
Histogram: 1 0 0 0 0 0 0 0 0 0
FullNghs:        18854 ave       18854 max       18854 min
Histogram: 1 0 0 0 0 0 0 0 0 0

Total # of neighbors = 18854
Ave neighs/atom = 299.26984
Neighbor list builds = 0
Dangerous builds = 0
All done
Total number of atoms = 64
Initial energy of atoms = -653.438289814604
Final energy of atoms = -648.870615404949
Vacancy formation energy = -5.64229886869828
Total wall time: 0:00:00
