LAMMPS (23 Jun 2022)
Lattice spacing in x,y,z = 4.54 4.54 4.54
Created orthogonal box = (0 0 0) to (4.54 4.54 4.54)
  1 by 1 by 1 MPI processor grid
Lattice spacing in x,y,z = 4.54 4.54 4.54
Created 4 atoms
  using lattice units in orthogonal box = (0 0 0) to (4.54 4.54 4.54)
  create_atoms CPU = 0.000 seconds
Lattice spacing in x,y,z = 4.54 4.54 4.54
Created 4 atoms
  using lattice units in orthogonal box = (0 0 0) to (4.54 4.54 4.54)
  create_atoms CPU = 0.000 seconds
Replicating atoms ...
  orthogonal box = (0 0 0) to (4.54 4.54 4.54)
  1 by 1 by 1 MPI processor grid
  8 atoms
  replicate CPU = 0.000 seconds
Reading MEAM library file library_HfN.meam with DATE: 2015-02-12
WARNING: Using 'neigh_modify every 1 delay 0 check yes' setting during minimization (src/min.cpp:187)
Neighbor list info ...
  update every 1 steps, delay 0 steps, check yes
  max neighbors/atom: 2000, page size: 100000
  master list distance cutoff = 9.38
  ghost atom cutoff = 9.38
  binsize = 4.69, bins = 1 1 1
  2 neighbor lists, perpetual/occasional/extra = 2 0 0
  (1) pair meam, perpetual
      attributes: full, newton on
      pair build: full/bin/atomonly
      stencil: full/bin/3d
      bin: standard
  (2) pair meam, perpetual, half/full from (1)
      attributes: half, newton on
      pair build: halffull/newton
      stencil: none
      bin: none
Setting up cg style minimization ...
  Unit style    : metal
  Current step  : 0
WARNING: Energy due to 1 extra global DOFs will be included in minimizer energies
Per MPI rank memory allocation (min/avg/max) = 9.859 | 9.859 | 9.859 Mbytes
   Step         PotEng           Lx             Ly             Lz           Press           Pxx            Pyy            Pzz          c_eatoms   
         0  -81.679786      4.54           4.54           4.54          -5534.3627     -5534.3627     -5534.3627     -5534.3627     -81.679786    
         3  -81.68          4.538          4.538          4.538         -6.3575499e-06 -6.3575499e-06 -6.3575499e-06 -6.3575499e-06 -81.68        
Loop time of 0.00348354 on 1 procs for 3 steps with 8 atoms

100.0% CPU use with 1 MPI tasks x no OpenMP threads

Minimization stats:
  Stopping criterion = energy tolerance
  Energy initial, next-to-last, final = 
     -81.6797862268255    -81.67999998463    -81.67999998463
  Force two-norm initial, final = 0.96971937 1.1129753e-09
  Force max component initial, final = 0.96971937 1.1129753e-09
  Final line search alpha, max atom move = 1 1.1129753e-09
  Iterations, force evaluations = 3 6

MPI task timing breakdown:
Section |  min time  |  avg time  |  max time  |%varavg| %total
---------------------------------------------------------------
Pair    | 0.0033609  | 0.0033609  | 0.0033609  |   0.0 | 96.48
Neigh   | 0          | 0          | 0          |   0.0 |  0.00
Comm    | 3.4166e-05 | 3.4166e-05 | 3.4166e-05 |   0.0 |  0.98
Output  | 0          | 0          | 0          |   0.0 |  0.00
Modify  | 0          | 0          | 0          |   0.0 |  0.00
Other   |            | 8.846e-05  |            |       |  2.54

Nlocal:              8 ave           8 max           8 min
Histogram: 1 0 0 0 0 0 0 0 0 0
Nghost:           1323 ave        1323 max        1323 min
Histogram: 1 0 0 0 0 0 0 0 0 0
Neighs:           1216 ave        1216 max        1216 min
Histogram: 1 0 0 0 0 0 0 0 0 0
FullNghs:         2432 ave        2432 max        2432 min
Histogram: 1 0 0 0 0 0 0 0 0 0

Total # of neighbors = 2432
Ave neighs/atom = 304
Neighbor list builds = 0
Dangerous builds = 0
Total energy (eV) = -81.67999998463;
Number of atoms = 8;
Lattice constant (Angstoms) = 4.53799999842625;
Cohesive energy (eV) = -10.2099999980788;
All done!
Total wall time: 0:00:00
