64
 Atoms. Timestep: 0
1 -4.608 -4.608 -4.608
1 -2.304 -2.304 -4.608
1 -2.304 -4.608 -2.304
1 -4.608 -2.304 -2.304
1 0 -4.608 -4.608
1 2.304 -2.304 -4.608
1 2.304 -4.608 -2.304
1 0 -2.304 -2.304
1 -4.608 0 -4.608
1 -2.304 2.304 -4.608
1 -2.304 0 -2.304
1 -4.608 2.304 -2.304
1 0 0 -4.608
1 2.304 2.304 -4.608
1 2.304 0 -2.304
1 0 2.304 -2.304
1 -4.608 -4.608 0
1 -2.304 -2.304 0
1 -2.304 -4.608 2.304
1 -4.608 -2.304 2.304
1 0 -4.608 0
1 2.304 -2.304 0
1 2.304 -4.608 2.304
1 0 -2.304 2.304
1 -4.608 0 0
1 -2.304 2.304 0
1 -2.304 0 2.304
1 -4.608 2.304 2.304
1 0 0 0
1 2.304 2.304 0
1 2.304 0 2.304
1 0 2.304 2.304
2 -2.304 -4.608 -4.608
2 -4.608 -2.304 -4.608
2 2.304 -4.608 -4.608
2 0 -2.304 -4.608
2 -2.304 0 -4.608
2 -4.608 2.304 -4.608
2 2.304 0 -4.608
2 0 2.304 -4.608
2 -4.608 -4.608 -2.304
2 -2.304 -2.304 -2.304
2 -2.304 -4.608 0
2 -4.608 -2.304 0
2 0 -4.608 -2.304
2 2.304 -2.304 -2.304
2 2.304 -4.608 0
2 0 -2.304 0
2 -4.608 0 -2.304
2 -2.304 2.304 -2.304
2 -2.304 0 0
2 -4.608 2.304 0
2 0 0 -2.304
2 2.304 2.304 -2.304
2 2.304 0 0
2 0 2.304 0
2 -4.608 -4.608 2.304
2 -2.304 -2.304 2.304
2 0 -4.608 2.304
2 2.304 -2.304 2.304
2 -4.608 0 2.304
2 -2.304 2.304 2.304
2 0 0 2.304
2 2.304 2.304 2.304
64
 Atoms. Timestep: 1
1 -4.608 -4.608 -4.608
1 -2.304 -2.304 -4.608
1 -2.304 -4.608 -2.304
1 -4.608 -2.304 -2.304
1 -1.43368e-18 -4.608 -4.608
1 2.304 -2.304 -4.608
1 2.304 -4.608 -2.304
1 -1.30175e-18 -2.304 -2.304
1 -4.608 -1.48646e-18 -4.608
1 -2.304 2.304 -4.608
1 -2.304 -1.30175e-18 -2.304
1 -4.608 2.304 -2.304
1 -1.51285e-18 -1.52164e-18 -4.608
1 2.304 2.304 -4.608
1 2.304 -1.42489e-18 -2.304
1 -1.43368e-18 2.304 -2.304
1 -4.608 -4.608 -1.38971e-18
1 -2.304 -2.304 -1.31934e-18
1 -2.304 -4.608 2.304
1 -4.608 -2.304 2.304
1 -1.16102e-18 -4.608 -1.1962e-18
1 2.304 -2.304 -1.34573e-18
1 2.304 -4.608 2.304
1 -1.31055e-18 -2.304 2.304
1 -4.608 -1.24898e-18 -1.205e-18
1 -2.304 2.304 -1.32814e-18
1 -2.304 -1.27536e-18 2.304
1 -4.608 2.304 2.304
1 -1.4073e-18 -1.43368e-18 -1.35452e-18
1 2.304 2.304 -1.49525e-18
1 2.304 -1.46887e-18 2.304
1 -1.47766e-18 2.304 2.304
2 -2.304 -4.608 -4.608
2 -4.608 -2.304 -4.608
2 2.304 -4.608 -4.608
2 -3.23678e-18 -2.304 -4.608
2 -2.304 -3.23678e-18 -4.608
2 -4.608 2.304 -4.608
2 2.304 -2.99051e-18 -4.608
2 -2.99286e-18 2.304 -4.608
2 -4.608 -4.608 -2.304
2 -2.304 -2.304 -2.304
2 -2.304 -4.608 -3.4127e-18
2 -4.608 -2.304 -3.4127e-18
2 -3.18401e-18 -4.608 -2.304
2 2.304 -2.304 -2.304
2 2.304 -4.608 -2.92014e-18
2 -3.77332e-18 -2.304 -3.72054e-18
2 -4.608 -3.2016e-18 -2.304
2 -2.304 2.304 -2.304
2 -2.304 -3.8085e-18 -3.72054e-18
2 -4.608 2.304 -2.92014e-18
2 -3.57981e-18 -3.50945e-18 -2.304
2 2.304 2.304 -2.304
2 2.304 -3.4127e-18 -3.16642e-18
2 -3.44788e-18 2.304 -3.30715e-18
2 -4.608 -4.608 2.304
2 -2.304 -2.304 2.304
2 -3.05208e-18 -4.608 2.304
2 2.304 -2.304 2.304
2 -4.608 -3.06087e-18 2.304
2 -2.304 2.304 2.304
2 -3.51824e-18 -3.4127e-18 2.304
2 2.304 2.304 2.304
64
 Atoms. Timestep: 2
1 -4.608 -4.608 -4.608
1 -2.304 -2.304 -4.608
1 -2.304 -4.608 -2.304
1 -4.608 -2.304 -2.304
1 -2.23431e-18 -4.608 -4.608
1 2.304 -2.304 -4.608
1 2.304 -4.608 -2.304
1 -2.40997e-18 -2.304 -2.304
1 -4.608 -2.1372e-18 -4.608
1 -2.304 2.304 -4.608
1 -2.304 -2.33961e-18 -2.304
1 -4.608 2.304 -2.304
1 -2.41004e-18 -2.44502e-18 -4.608
1 2.304 2.304 -4.608
1 2.304 -2.27792e-18 -2.304
1 -2.35718e-18 2.304 -2.304
1 -4.608 -4.608 -2.20756e-18
1 -2.304 -2.304 -2.25153e-18
1 -2.304 -4.608 2.304
1 -4.608 -2.304 2.304
1 -2.25177e-18 -4.608 -2.45382e-18
1 2.304 -2.304 -2.21635e-18
1 2.304 -4.608 2.304
1 -2.3308e-18 -2.304 2.304
1 -4.608 -2.45382e-18 -2.43623e-18
1 -2.304 2.304 -2.17238e-18
1 -2.304 -2.22526e-18 2.304
1 -4.608 2.304 2.304
1 -2.48032e-18 -2.32189e-18 -2.33948e-18
1 2.304 2.304 -2.36587e-18
1 2.304 -2.34828e-18 2.304
1 -2.42752e-18 2.304 2.304
2 -2.304 -4.608 -4.608
2 -4.608 -2.304 -4.608
2 2.304 -4.608 -4.608
2 -5.32947e-18 -2.304 -4.608
2 -2.304 -5.36467e-18 -4.608
2 -4.608 2.304 -4.608
2 2.304 -5.62883e-18 -4.608
2 -5.6249e-18 2.304 -4.608
2 -4.608 -4.608 -2.304
2 -2.304 -2.304 -2.304
2 -2.304 -4.608 -4.89004e-18
2 -4.608 -2.304 -4.89004e-18
2 -5.24148e-18 -4.608 -2.304
2 2.304 -2.304 -2.304
2 2.304 -4.608 -5.1363e-18
2 -4.87228e-18 -2.304 -4.64372e-18
2 -4.608 -5.24184e-18 -2.304
2 -2.304 2.304 -2.304
2 -2.304 -4.97783e-18 -4.64372e-18
2 -4.608 2.304 -5.20666e-18
2 -5.11855e-18 -5.13625e-18 -2.304
2 2.304 2.304 -2.304
2 2.304 -5.03076e-18 -4.9604e-18
2 -4.83704e-18 2.304 -4.81968e-18
2 -4.608 -4.608 2.304
2 -2.304 -2.304 2.304
2 -5.38233e-18 -4.608 2.304
2 2.304 -2.304 2.304
2 -4.608 -5.27703e-18 2.304
2 -2.304 2.304 2.304
2 -4.88114e-18 -4.8812e-18 2.304
2 2.304 2.304 2.304
