LAMMPS (23 Jun 2022)
# Compute elastic constant tensor for a crystal
#
# Written by Aidan Thompson (Sandia, athomps@sandia.gov)
#
#  This script uses the following three include files.
#
#   init.mod      (must be modified for different crystal structures)
# 	       	  Define units, deformation parameters and initial
#		  configuration of the atoms and simulation cell.
#
#
#   potential.mod    (must be modified for different pair styles)
# 		     Define pair style and other attributes
#		     not stored in restart file
#
#
#   displace.mod    (displace.mod should not need to be modified)
# 		    Perform positive and negative box displacements
# 		    in direction ${dir} and size ${up}.
# 		    It uses the resultant changes
#		    in stress to compute one
# 		    row of the elastic stiffness tensor
#
#		    Inputs variables:
#		    	   dir = the Voigt deformation component
#		    		    (1,2,3,4,5,6)
#		    Global constants:
#       	    	   up = the deformation magnitude (strain units)
#       		   cfac = conversion from LAMMPS pressure units to
#               	   output units for elastic constants
#
#
#  To run this on a different system, it should only be necessary to
#  modify the files init.mod and potential.mod. In order to calculate
#  the elastic constants correctly, care must be taken to specify
#  the correct units in init.mod (units, cfac and cunits). It is also
#  important to verify that the minimization of energy w.r.t atom
#  positions in the deformed cell is fully converged.
#  One indication of this is that the elastic constants are insensitive
#  to the choice of the variable ${up} in init.mod. Another is to check
#  the final max and two-norm forces reported in the log file. If you know
#  that minimization is not required, you can set maxiter = 0.0 in
#  init.mod.
#

include init.mod
# NOTE: This script can be modified for different atomic structures,
# units, etc. See in.elastic for more info.
#

# Define the finite deformation size. Try several values of this
# variable to verify that results do not depend on it.
variable up equal 1.0e-5

# Define the amount of random jiggle for atoms
# This prevents atoms from staying on saddle points
variable atomjiggle equal 1.0e-6

# metal units, elastic constants in GPa
units		metal
variable cfac equal 1.0e-4
variable cunits string GPa

# Define minimization parameters
variable etol equal 0.0
variable ftol equal 1.0e-12
variable maxiter equal 1000
variable maxeval equal 1000
variable dmax equal 1.0e-2

# generate the box and atom positions using a diamond lattice
# variable a equal 5.43

boundary	p p p

lattice     fcc 4.608
Lattice spacing in x,y,z = 4.608 4.608 4.608
region		simbox prism -1.0 1.0 -1.0 1.0 -1.0 1.0 0.0 0.0 0.0
create_box	2 simbox
Created triclinic box = (-4.608 -4.608 -4.608) to (4.608 4.608 4.608) with tilt (0 0 0)
  1 by 1 by 1 MPI processor grid
lattice 	fcc 4.608 orient x 1 0 0 orient y 0 1 0 orient z 0 0 1
Lattice spacing in x,y,z = 4.608 4.608 4.608
create_atoms	1 region simbox
Created 32 atoms
  using lattice units in triclinic box = (-4.608 -4.608 -4.608) to (4.608 4.608 4.608) with tilt (0 0 0)
  create_atoms CPU = 0.000 seconds
lattice 	fcc 4.608 origin 0 0 0.5 orient x 1 0 0 orient y 0 1 0 orient z 0 0 1
Lattice spacing in x,y,z = 4.608 4.608 4.608
create_atoms	2 region simbox
Created 32 atoms
  using lattice units in triclinic box = (-4.608 -4.608 -4.608) to (4.608 4.608 4.608) with tilt (0 0 0)
  create_atoms CPU = 0.000 seconds
dump DUMPFILE all xyz 1 dump.xyz

# Need to set mass to something, just to satisfy LAMMPS
mass 1 91.224
mass 2 14.007

include potential.mod
# NOTE: This script can be modified for different pair styles
# See in.elastic for more info.

# Choose potential
pair_style	meam
pair_coeff * * library_ZrN.meam Zr N ZrN.meam Zr N
Reading MEAM library file library_ZrN.meam with DATE: 2015-02-12

# Setup neighbor style
neighbor 1.0 nsq
neigh_modify once no every 1 delay 0 check yes

# Setup minimization style
min_style	     cg
min_modify	     dmax ${dmax} line quadratic
min_modify	     dmax 0.01 line quadratic

# Setup output
thermo		1
thermo_style custom step temp pe press pxx pyy pzz pxy pxz pyz lx ly lz vol
thermo_modify norm no

# Compute initial state
fix 3 all box/relax  aniso 0.0
minimize ${etol} ${ftol} ${maxiter} ${maxeval}
minimize 0 ${ftol} ${maxiter} ${maxeval}
minimize 0 1e-12 ${maxiter} ${maxeval}
minimize 0 1e-12 1000 ${maxeval}
minimize 0 1e-12 1000 1000
Neighbor list info ...
  update every 1 steps, delay 0 steps, check yes
  max neighbors/atom: 2000, page size: 100000
  master list distance cutoff = 6.26
  ghost atom cutoff = 6.26
  2 neighbor lists, perpetual/occasional/extra = 2 0 0
  (1) pair meam, perpetual
      attributes: full, newton on
      pair build: full/nsq
      stencil: none
      bin: none
  (2) pair meam, perpetual, half/full from (1)
      attributes: half, newton on
      pair build: halffull/newton
      stencil: none
      bin: none
Per MPI rank memory allocation (min/avg/max) = 10.94 | 10.94 | 10.94 Mbytes
   Step          Temp          PotEng         Press           Pxx            Pyy            Pzz            Pxy            Pxz            Pyz             Lx             Ly             Lz           Volume    
         0   0             -472.768        0.029718359    0.029718359    0.029718359    0.029718359    3.9995014e-11  1.8179552e-11  3.6359104e-11  9.216          9.216          9.216          782.75779    
         1   0             -472.768       -1.9241453e-06 -1.9241238e-06 -1.9241492e-06 -1.9241628e-06 -7.2682434e-12 -1.2729263e-11  1.2725686e-11  9.216          9.216          9.216          782.7578     
         2   0             -472.768       -5.7992769e-10 -5.6356608e-10 -5.7810974e-10 -5.9810725e-10 -1.6354873e-11  7.2650974e-12 -3.6359103e-12  9.216          9.216          9.216          782.7578     
Loop time of 0.00586165 on 1 procs for 2 steps with 64 atoms

97.2% CPU use with 1 MPI tasks x no OpenMP threads

Minimization stats:
  Stopping criterion = force tolerance
  Energy initial, next-to-last, final = 
     -472.768000013946  -472.768000013944  -472.768000013949
  Force two-norm initial, final = 2.5147944e-05 5.3302223e-13
  Force max component initial, final = 1.4519172e-05 2.922107e-13
  Final line search alpha, max atom move = 1 2.922107e-13
  Iterations, force evaluations = 2 4

MPI task timing breakdown:
Section |  min time  |  avg time  |  max time  |%varavg| %total
---------------------------------------------------------------
Pair    | 0.0056626  | 0.0056626  | 0.0056626  |   0.0 | 96.60
Neigh   | 0          | 0          | 0          |   0.0 |  0.00
Comm    | 1.42e-05   | 1.42e-05   | 1.42e-05   |   0.0 |  0.24
Output  | 6.0638e-05 | 6.0638e-05 | 6.0638e-05 |   0.0 |  1.03
Modify  | 0          | 0          | 0          |   0.0 |  0.00
Other   |            | 0.0001242  |            |       |  2.12

Nlocal:             64 ave          64 max          64 min
Histogram: 1 0 0 0 0 0 0 0 0 0
Nghost:            665 ave         665 max         665 min
Histogram: 1 0 0 0 0 0 0 0 0 0
Neighs:           2560 ave        2560 max        2560 min
Histogram: 1 0 0 0 0 0 0 0 0 0
FullNghs:         5120 ave        5120 max        5120 min
Histogram: 1 0 0 0 0 0 0 0 0 0

Total # of neighbors = 5120
Ave neighs/atom = 80
Neighbor list builds = 0
Dangerous builds = 0

variable tmp equal pxx
variable pxx0 equal ${tmp}
variable pxx0 equal -5.63566077113109e-10
variable tmp equal pyy
variable pyy0 equal ${tmp}
variable pyy0 equal -5.78109744699513e-10
variable tmp equal pzz
variable pzz0 equal ${tmp}
variable pzz0 equal -5.98107251591635e-10
variable tmp equal pyz
variable pyz0 equal ${tmp}
variable pyz0 equal -3.6359103440221e-12
variable tmp equal pxz
variable pxz0 equal ${tmp}
variable pxz0 equal 7.26509741181912e-12
variable tmp equal pxy
variable pxy0 equal ${tmp}
variable pxy0 equal -1.63548732718744e-11

variable tmp equal lx
variable lx0 equal ${tmp}
variable lx0 equal 9.2160000424006
variable tmp equal ly
variable ly0 equal ${tmp}
variable ly0 equal 9.2160000424006
variable tmp equal lz
variable lz0 equal ${tmp}
variable lz0 equal 9.2160000424006

# These formulas define the derivatives w.r.t. strain components
# Constants uses $, variables use v_
variable d1 equal -(v_pxx1-${pxx0})/(v_delta/v_len0)*${cfac}
variable d1 equal -(v_pxx1--5.63566077113109e-10)/(v_delta/v_len0)*${cfac}
variable d1 equal -(v_pxx1--5.63566077113109e-10)/(v_delta/v_len0)*0.0001
variable d2 equal -(v_pyy1-${pyy0})/(v_delta/v_len0)*${cfac}
variable d2 equal -(v_pyy1--5.78109744699513e-10)/(v_delta/v_len0)*${cfac}
variable d2 equal -(v_pyy1--5.78109744699513e-10)/(v_delta/v_len0)*0.0001
variable d3 equal -(v_pzz1-${pzz0})/(v_delta/v_len0)*${cfac}
variable d3 equal -(v_pzz1--5.98107251591635e-10)/(v_delta/v_len0)*${cfac}
variable d3 equal -(v_pzz1--5.98107251591635e-10)/(v_delta/v_len0)*0.0001
variable d4 equal -(v_pyz1-${pyz0})/(v_delta/v_len0)*${cfac}
variable d4 equal -(v_pyz1--3.6359103440221e-12)/(v_delta/v_len0)*${cfac}
variable d4 equal -(v_pyz1--3.6359103440221e-12)/(v_delta/v_len0)*0.0001
variable d5 equal -(v_pxz1-${pxz0})/(v_delta/v_len0)*${cfac}
variable d5 equal -(v_pxz1-7.26509741181912e-12)/(v_delta/v_len0)*${cfac}
variable d5 equal -(v_pxz1-7.26509741181912e-12)/(v_delta/v_len0)*0.0001
variable d6 equal -(v_pxy1-${pxy0})/(v_delta/v_len0)*${cfac}
variable d6 equal -(v_pxy1--1.63548732718744e-11)/(v_delta/v_len0)*${cfac}
variable d6 equal -(v_pxy1--1.63548732718744e-11)/(v_delta/v_len0)*0.0001

displace_atoms all random ${atomjiggle} ${atomjiggle} ${atomjiggle} 87287 units box
displace_atoms all random 1e-06 ${atomjiggle} ${atomjiggle} 87287 units box
displace_atoms all random 1e-06 1e-06 ${atomjiggle} 87287 units box
displace_atoms all random 1e-06 1e-06 1e-06 87287 units box
Displacing atoms ...

# Write restart
unfix 3
write_restart restart.equil
System init for write_restart ...

# uxx Perturbation

variable dir equal 1
include displace.mod
# NOTE: This script should not need to be
# modified. See in.elastic for more info.
#
# Find which reference length to use

if "${dir} == 1" then    "variable len0 equal ${lx0}"
variable len0 equal ${lx0}
variable len0 equal 9.2160000424006
if "${dir} == 2" then    "variable len0 equal ${ly0}"
if "${dir} == 3" then    "variable len0 equal ${lz0}"
if "${dir} == 4" then    "variable len0 equal ${lz0}"
if "${dir} == 5" then    "variable len0 equal ${lz0}"
if "${dir} == 6" then    "variable len0 equal ${ly0}"

# Reset box and simulation parameters

clear
box tilt large
read_restart restart.equil
Reading restart file ...
  restart file = 23 Jun 2022, LAMMPS = 23 Jun 2022
  restoring atom style atomic from restart
  triclinic box = (-4.608 -4.608 -4.608) to (4.608 4.608 4.608) with tilt (0 0 0)
  1 by 1 by 1 MPI processor grid
  pair style meam stores no restart info
  64 atoms
  read_restart CPU = 0.000 seconds
include potential.mod
# NOTE: This script can be modified for different pair styles
# See in.elastic for more info.

# Choose potential
pair_style	meam
pair_coeff * * library_ZrN.meam Zr N ZrN.meam Zr N
Reading MEAM library file library_ZrN.meam with DATE: 2015-02-12

# Setup neighbor style
neighbor 1.0 nsq
neigh_modify once no every 1 delay 0 check yes

# Setup minimization style
min_style	     cg
min_modify	     dmax ${dmax} line quadratic
min_modify	     dmax 0.01 line quadratic

# Setup output
thermo		1
thermo_style custom step temp pe press pxx pyy pzz pxy pxz pyz lx ly lz vol
thermo_modify norm no

# Negative deformation

variable delta equal -${up}*${len0}
variable delta equal -1e-05*${len0}
variable delta equal -1e-05*9.2160000424006
variable deltaxy equal -${up}*xy
variable deltaxy equal -1e-05*xy
variable deltaxz equal -${up}*xz
variable deltaxz equal -1e-05*xz
variable deltayz equal -${up}*yz
variable deltayz equal -1e-05*yz
if "${dir} == 1" then    "change_box all x delta 0 ${delta} xy delta ${deltaxy} xz delta ${deltaxz} remap units box"
change_box all x delta 0 ${delta} xy delta ${deltaxy} xz delta ${deltaxz} remap units box
change_box all x delta 0 -9.2160000424006e-05 xy delta ${deltaxy} xz delta ${deltaxz} remap units box
change_box all x delta 0 -9.2160000424006e-05 xy delta -0 xz delta ${deltaxz} remap units box
change_box all x delta 0 -9.2160000424006e-05 xy delta -0 xz delta -0 remap units box
Changing box ...
  triclinic box = (-4.608 -4.608 -4.608) to (4.6079079 4.608 4.608) with tilt (0 0 0)
  triclinic box = (-4.608 -4.608 -4.608) to (4.6079079 4.608 4.608) with tilt (0 0 0)
  triclinic box = (-4.608 -4.608 -4.608) to (4.6079079 4.608 4.608) with tilt (0 0 0)
if "${dir} == 2" then    "change_box all y delta 0 ${delta} yz delta ${deltayz} remap units box"
if "${dir} == 3" then    "change_box all z delta 0 ${delta} remap units box"
if "${dir} == 4" then    "change_box all yz delta ${delta} remap units box"
if "${dir} == 5" then    "change_box all xz delta ${delta} remap units box"
if "${dir} == 6" then    "change_box all xy delta ${delta} remap units box"

# Relax atoms positions

minimize ${etol} ${ftol} ${maxiter} ${maxeval}
minimize 0 ${ftol} ${maxiter} ${maxeval}
minimize 0 1e-12 ${maxiter} ${maxeval}
minimize 0 1e-12 1000 ${maxeval}
minimize 0 1e-12 1000 1000
Neighbor list info ...
  update every 1 steps, delay 0 steps, check yes
  max neighbors/atom: 2000, page size: 100000
  master list distance cutoff = 6.26
  ghost atom cutoff = 6.26
  2 neighbor lists, perpetual/occasional/extra = 2 0 0
  (1) pair meam, perpetual
      attributes: full, newton on
      pair build: full/nsq
      stencil: none
      bin: none
  (2) pair meam, perpetual, half/full from (1)
      attributes: half, newton on
      pair build: halffull/newton
      stencil: none
      bin: none
Per MPI rank memory allocation (min/avg/max) = 9.913 | 9.913 | 9.913 Mbytes
   Step          Temp          PotEng         Press           Pxx            Pyy            Pzz            Pxy            Pxz            Pyz             Lx             Ly             Lz           Volume    
         2   0             -472.768        21.532336      48.071455      8.262777       8.262777       2.5018268e-08  5.2341725e-09  4.2281515e-08  9.2159079      9.216          9.216          782.74997    
         3   0             -472.768        21.532335      48.071453      8.2627758      8.2627759      1.1767855e-08 -8.399605e-09  -8.326318e-10   9.2159079      9.216          9.216          782.74997    
         4   0             -472.768        21.532335      48.071453      8.2627757      8.2627758      2.5367546e-09 -5.2751906e-09 -4.5858378e-10  9.2159079      9.216          9.216          782.74997    
         5   0             -472.768        21.532335      48.071453      8.2627757      8.2627757      1.6111789e-09  1.8895561e-10 -3.5904974e-11  9.2159079      9.216          9.216          782.74997    
         6   0             -472.768        21.532335      48.071453      8.2627757      8.2627757      2.1168027e-10  3.7018482e-10 -5.2721227e-11  9.2159079      9.216          9.216          782.74997    
         7   0             -472.768        21.532335      48.071453      8.2627757      8.2627757      1.499828e-11   1.5316425e-10  8.1354307e-11  9.2159079      9.216          9.216          782.74997    
         8   0             -472.768        21.532335      48.071453      8.2627757      8.2627757     -6.0220367e-12  6.0220367e-12 -1.1362333e-11  9.2159079      9.216          9.216          782.74997    
         9   0             -472.768        21.532335      48.071453      8.2627757      8.2627757      8.7489968e-12  2.2383797e-11 -6.8174001e-12  9.2159079      9.216          9.216          782.74997    
        10   0             -472.768        21.532335      48.071453      8.2627757      8.2627757      2.3974524e-11 -8.2945034e-12  2.317916e-11   9.2159079      9.216          9.216          782.74997    
        11   0             -472.768        21.532335      48.071453      8.2627757      8.2627757      5.1357747e-11  4.5449334e-13 -1.8179734e-11  9.2159079      9.216          9.216          782.74997    
        12   0             -472.768        21.532335      48.071453      8.2627757      8.2627757      2.4656264e-11  3.8631934e-12  2.454264e-11   9.2159079      9.216          9.216          782.74997    
        13   0             -472.768        21.532335      48.071453      8.2627757      8.2627757     -2.4997134e-12 -5.1130501e-12  1.8179734e-11  9.2159079      9.216          9.216          782.74997    
        14   0             -472.768        21.532335      48.071453      8.2627757      8.2627757     -3.4087e-12     3.851831e-11  -1.1816827e-11  9.2159079      9.216          9.216          782.74997    
        15   0             -472.768        21.532335      48.071453      8.2627757      8.2627757      8.2945034e-12 -3.0791924e-11 -1.499828e-11   9.2159079      9.216          9.216          782.74997    
        16   0             -472.768        21.532335      48.071453      8.2627757      8.2627757      3.1814534e-12  1.5452773e-11 -4.1358894e-11  9.2159079      9.216          9.216          782.74997    
        17   0             -472.768        21.532335      48.071453      8.2627757      8.2627757      6.3629067e-12  2.9087574e-11  3.0905547e-11  9.2159079      9.216          9.216          782.74997    
        18   0             -472.768        21.532335      48.071453      8.2627757      8.2627757     -5.6811667e-13 -1.1816827e-11  2.8178587e-11  9.2159079      9.216          9.216          782.74997    
        19   0             -472.768        21.532335      48.071453      8.2627757      8.2627757      1.7270747e-11 -1.70435e-12   -3.5904974e-11  9.2159079      9.216          9.216          782.74997    
        20   0             -472.768        21.532335      48.071453      8.2627757      8.2627757      5.1130501e-12 -2.4997134e-12  4.908528e-11   9.2159079      9.216          9.216          782.74997    
Loop time of 0.0403107 on 1 procs for 18 steps with 64 atoms

99.3% CPU use with 1 MPI tasks x no OpenMP threads

Minimization stats:
  Stopping criterion = force tolerance
  Energy initial, next-to-last, final = 
     -472.767999896139  -472.767999896518   -472.76799989652
  Force two-norm initial, final = 0.00010872666 5.773727e-13
  Force max component initial, final = 2.4561132e-05 1.4344081e-13
  Final line search alpha, max atom move = 1 1.4344081e-13
  Iterations, force evaluations = 18 36

MPI task timing breakdown:
Section |  min time  |  avg time  |  max time  |%varavg| %total
---------------------------------------------------------------
Pair    | 0.039898   | 0.039898   | 0.039898   |   0.0 | 98.98
Neigh   | 0          | 0          | 0          |   0.0 |  0.00
Comm    | 0.00011188 | 0.00011188 | 0.00011188 |   0.0 |  0.28
Output  | 0.00019039 | 0.00019039 | 0.00019039 |   0.0 |  0.47
Modify  | 0          | 0          | 0          |   0.0 |  0.00
Other   |            | 0.0001101  |            |       |  0.27

Nlocal:             64 ave          64 max          64 min
Histogram: 1 0 0 0 0 0 0 0 0 0
Nghost:            665 ave         665 max         665 min
Histogram: 1 0 0 0 0 0 0 0 0 0
Neighs:           2560 ave        2560 max        2560 min
Histogram: 1 0 0 0 0 0 0 0 0 0
FullNghs:         5120 ave        5120 max        5120 min
Histogram: 1 0 0 0 0 0 0 0 0 0

Total # of neighbors = 5120
Ave neighs/atom = 80
Neighbor list builds = 0
Dangerous builds = 0

# Obtain new stress tensor

variable tmp equal pxx
variable pxx1 equal ${tmp}
variable pxx1 equal 48.0714531350451
variable tmp equal pyy
variable pyy1 equal ${tmp}
variable pyy1 equal 8.26277574195177
variable tmp equal pzz
variable pzz1 equal ${tmp}
variable pzz1 equal 8.26277574194495
variable tmp equal pxy
variable pxy1 equal ${tmp}
variable pxy1 equal 5.11305005178159e-12
variable tmp equal pxz
variable pxz1 equal ${tmp}
variable pxz1 equal -2.49971335864878e-12
variable tmp equal pyz
variable pyz1 equal ${tmp}
variable pyz1 equal 4.90852804971033e-11

# Compute elastic constant from pressure tensor

variable C1neg equal ${d1}
variable C1neg equal 480.714531356087
variable C2neg equal ${d2}
variable C2neg equal 82.6277574252988
variable C3neg equal ${d3}
variable C3neg equal 82.6277574254306
variable C4neg equal ${d4}
variable C4neg equal 5.27211908411254e-10
variable C5neg equal ${d5}
variable C5neg equal -9.7648107704679e-11
variable C6neg equal ${d6}
variable C6neg equal 2.1467923323656e-10

# Reset box and simulation parameters

clear
box tilt large
read_restart restart.equil
Reading restart file ...
  restart file = 23 Jun 2022, LAMMPS = 23 Jun 2022
  restoring atom style atomic from restart
  triclinic box = (-4.608 -4.608 -4.608) to (4.608 4.608 4.608) with tilt (0 0 0)
  1 by 1 by 1 MPI processor grid
  pair style meam stores no restart info
  64 atoms
  read_restart CPU = 0.000 seconds
include potential.mod
# NOTE: This script can be modified for different pair styles
# See in.elastic for more info.

# Choose potential
pair_style	meam
pair_coeff * * library_ZrN.meam Zr N ZrN.meam Zr N
Reading MEAM library file library_ZrN.meam with DATE: 2015-02-12

# Setup neighbor style
neighbor 1.0 nsq
neigh_modify once no every 1 delay 0 check yes

# Setup minimization style
min_style	     cg
min_modify	     dmax ${dmax} line quadratic
min_modify	     dmax 0.01 line quadratic

# Setup output
thermo		1
thermo_style custom step temp pe press pxx pyy pzz pxy pxz pyz lx ly lz vol
thermo_modify norm no

# Positive deformation

variable delta equal ${up}*${len0}
variable delta equal 1e-05*${len0}
variable delta equal 1e-05*9.2160000424006
variable deltaxy equal ${up}*xy
variable deltaxy equal 1e-05*xy
variable deltaxz equal ${up}*xz
variable deltaxz equal 1e-05*xz
variable deltayz equal ${up}*yz
variable deltayz equal 1e-05*yz
if "${dir} == 1" then    "change_box all x delta 0 ${delta} xy delta ${deltaxy} xz delta ${deltaxz} remap units box"
change_box all x delta 0 ${delta} xy delta ${deltaxy} xz delta ${deltaxz} remap units box
change_box all x delta 0 9.2160000424006e-05 xy delta ${deltaxy} xz delta ${deltaxz} remap units box
change_box all x delta 0 9.2160000424006e-05 xy delta 0 xz delta ${deltaxz} remap units box
change_box all x delta 0 9.2160000424006e-05 xy delta 0 xz delta 0 remap units box
Changing box ...
  triclinic box = (-4.608 -4.608 -4.608) to (4.6080922 4.608 4.608) with tilt (0 0 0)
  triclinic box = (-4.608 -4.608 -4.608) to (4.6080922 4.608 4.608) with tilt (0 0 0)
  triclinic box = (-4.608 -4.608 -4.608) to (4.6080922 4.608 4.608) with tilt (0 0 0)
if "${dir} == 2" then    "change_box all y delta 0 ${delta} yz delta ${deltayz} remap units box"
if "${dir} == 3" then    "change_box all z delta 0 ${delta} remap units box"
if "${dir} == 4" then    "change_box all yz delta ${delta} remap units box"
if "${dir} == 5" then    "change_box all xz delta ${delta} remap units box"
if "${dir} == 6" then    "change_box all xy delta ${delta} remap units box"

# Relax atoms positions

minimize ${etol} ${ftol} ${maxiter} ${maxeval}
minimize 0 ${ftol} ${maxiter} ${maxeval}
minimize 0 1e-12 ${maxiter} ${maxeval}
minimize 0 1e-12 1000 ${maxeval}
minimize 0 1e-12 1000 1000
Neighbor list info ...
  update every 1 steps, delay 0 steps, check yes
  max neighbors/atom: 2000, page size: 100000
  master list distance cutoff = 6.26
  ghost atom cutoff = 6.26
  2 neighbor lists, perpetual/occasional/extra = 2 0 0
  (1) pair meam, perpetual
      attributes: full, newton on
      pair build: full/nsq
      stencil: none
      bin: none
  (2) pair meam, perpetual, half/full from (1)
      attributes: half, newton on
      pair build: halffull/newton
      stencil: none
      bin: none
Per MPI rank memory allocation (min/avg/max) = 9.913 | 9.913 | 9.913 Mbytes
   Step          Temp          PotEng         Press           Pxx            Pyy            Pzz            Pxy            Pxz            Pyz             Lx             Ly             Lz           Volume    
         2   0             -472.768       -21.530639     -48.067227     -8.2623446     -8.2623446      2.5044809e-08  5.2815614e-09  4.2294759e-08  9.2160922      9.216          9.216          782.76563    
         3   0             -472.768       -21.53064      -48.067229     -8.2623458     -8.2623457      1.1722626e-08 -8.3913699e-09 -8.8669877e-10  9.2160922      9.216          9.216          782.76563    
         4   0             -472.768       -21.53064      -48.067229     -8.2623459     -8.2623459      2.520456e-09  -5.227137e-09  -4.7811743e-10  9.2160922      9.216          9.216          782.76563    
         5   0             -472.768       -21.53064      -48.067229     -8.2623459     -8.2623459      1.5918311e-09  1.5906949e-10 -8.6352007e-12  9.2160922      9.216          9.216          782.76563    
         6   0             -472.768       -21.53064      -48.067229     -8.2623459     -8.2623459      2.5007996e-10  3.4529441e-10 -4.9538783e-11  9.2160922      9.216          9.216          782.76563    
         7   0             -472.768       -21.53064      -48.067229     -8.2623459     -8.2623459     -4.2039793e-12  1.7009073e-10  4.8629815e-11  9.2160922      9.216          9.216          782.76563    
         8   0             -472.768       -21.53064      -48.067229     -8.2623459     -8.2623459      1.4657117e-11  5.8628468e-11  6.8172637e-11  9.2160922      9.216          9.216          782.76563    
         9   0             -472.768       -21.53064      -48.067229     -8.2623459     -8.2623459     -1.6247812e-11 -1.9997307e-11 -4.2267035e-11  9.2160922      9.216          9.216          782.76563    
        10   0             -472.768       -21.53064      -48.067229     -8.2623459     -8.2623459     -1.5679707e-11 -4.817533e-11  -2.999596e-11   9.2160922      9.216          9.216          782.76563    
        11   0             -472.768       -21.53064      -48.067229     -8.2623459     -8.2623459      3.3063729e-11  1.5679707e-11  3.5904256e-11  9.2160922      9.216          9.216          782.76563    
        12   0             -472.768       -21.53064      -48.067229     -8.2623459     -8.2623459      1.4089012e-11 -1.817937e-12  -3.6813224e-11  9.2160922      9.216          9.216          782.76563    
        13   0             -472.768       -21.53064      -48.067229     -8.2623459     -8.2623459      1.5111601e-11  2.1588002e-12  5.3174657e-11  9.2160922      9.216          9.216          782.76563    
        14   0             -472.768       -21.53064      -48.067229     -8.2623459     -8.2623459     -4.4312214e-12  2.1133518e-11 -3.2268382e-11  9.2160922      9.216          9.216          782.76563    
        15   0             -472.768       -21.53064      -48.067229     -8.2623459     -8.2623459     -2.8746129e-11  7.0445058e-12  9.9986535e-12  9.2160922      9.216          9.216          782.76563    
        16   0             -472.768       -21.53064      -48.067229     -8.2623459     -8.2623459     -1.2043833e-11  4.2948761e-11  2.7269055e-12  9.2160922      9.216          9.216          782.76563    
        17   0             -472.768       -21.53064      -48.067229     -8.2623459     -8.2623459      1.9088338e-11 -2.0451791e-12  9.3623755e-11  9.2160922      9.216          9.216          782.76563    
        18   0             -472.768       -21.53064      -48.067229     -8.2623459     -8.2623459     -6.1355374e-12  3.2950108e-12  3.2268382e-11  9.2160922      9.216          9.216          782.76563    
        19   0             -472.768       -21.53064      -48.067229     -8.2623459     -8.2623459      3.2836487e-11 -1.2498317e-11  4.817533e-11   9.2160922      9.216          9.216          782.76563    
        20   0             -472.768       -21.53064      -48.067229     -8.2623459     -8.2623459     -1.2611938e-11 -2.6473707e-11  2.8632508e-11  9.2160922      9.216          9.216          782.76563    
Loop time of 0.0394962 on 1 procs for 18 steps with 64 atoms

98.7% CPU use with 1 MPI tasks x no OpenMP threads

Minimization stats:
  Stopping criterion = force tolerance
  Energy initial, next-to-last, final = 
     -472.767999896146  -472.767999896524  -472.767999896524
  Force two-norm initial, final = 0.00010872061 5.8273102e-13
  Force max component initial, final = 2.4560919e-05 1.2456702e-13
  Final line search alpha, max atom move = 1 1.2456702e-13
  Iterations, force evaluations = 18 36

MPI task timing breakdown:
Section |  min time  |  avg time  |  max time  |%varavg| %total
---------------------------------------------------------------
Pair    | 0.039057   | 0.039057   | 0.039057   |   0.0 | 98.89
Neigh   | 0          | 0          | 0          |   0.0 |  0.00
Comm    | 9.4157e-05 | 9.4157e-05 | 9.4157e-05 |   0.0 |  0.24
Output  | 0.00018929 | 0.00018929 | 0.00018929 |   0.0 |  0.48
Modify  | 0          | 0          | 0          |   0.0 |  0.00
Other   |            | 0.0001555  |            |       |  0.39

Nlocal:             64 ave          64 max          64 min
Histogram: 1 0 0 0 0 0 0 0 0 0
Nghost:            665 ave         665 max         665 min
Histogram: 1 0 0 0 0 0 0 0 0 0
Neighs:           2560 ave        2560 max        2560 min
Histogram: 1 0 0 0 0 0 0 0 0 0
FullNghs:         5120 ave        5120 max        5120 min
Histogram: 1 0 0 0 0 0 0 0 0 0

Total # of neighbors = 5120
Ave neighs/atom = 80
Neighbor list builds = 0
Dangerous builds = 0

# Obtain new stress tensor

variable tmp equal pe
variable e1 equal ${tmp}
variable e1 equal -472.767999896524
variable tmp equal press
variable p1 equal ${tmp}
variable p1 equal -21.5306402257611
variable tmp equal pxx
variable pxx1 equal ${tmp}
variable pxx1 equal -48.0672289100823
variable tmp equal pyy
variable pyy1 equal ${tmp}
variable pyy1 equal -8.26234588359842
variable tmp equal pzz
variable pzz1 equal ${tmp}
variable pzz1 equal -8.26234588360274
variable tmp equal pxy
variable pxy1 equal ${tmp}
variable pxy1 equal -1.26119378864478e-11
variable tmp equal pxz
variable pxz1 equal ${tmp}
variable pxz1 equal -2.64737074553363e-11
variable tmp equal pyz
variable pyz1 equal ${tmp}
variable pyz1 equal 2.86325076340977e-11

# Compute elastic constant from pressure tensor

variable C1pos equal ${d1}
variable C1pos equal 480.672289095187
variable C2pos equal ${d2}
variable C2pos equal 82.6234588302031
variable C3pos equal ${d3}
variable C3pos equal 82.6234588300463
variable C4pos equal ${d4}
variable C4pos equal -3.22684179781198e-10
variable C5pos equal ${d5}
variable C5pos equal 3.37388048671554e-10
variable C6pos equal ${d6}
variable C6pos equal -3.7429353854266e-11

# Combine positive and negative

variable C1${dir} equal 0.5*(${C1neg}+${C1pos})
variable C11 equal 0.5*(${C1neg}+${C1pos})
variable C11 equal 0.5*(480.714531356087+${C1pos})
variable C11 equal 0.5*(480.714531356087+480.672289095187)
variable C2${dir} equal 0.5*(${C2neg}+${C2pos})
variable C21 equal 0.5*(${C2neg}+${C2pos})
variable C21 equal 0.5*(82.6277574252988+${C2pos})
variable C21 equal 0.5*(82.6277574252988+82.6234588302031)
variable C3${dir} equal 0.5*(${C3neg}+${C3pos})
variable C31 equal 0.5*(${C3neg}+${C3pos})
variable C31 equal 0.5*(82.6277574254306+${C3pos})
variable C31 equal 0.5*(82.6277574254306+82.6234588300463)
variable C4${dir} equal 0.5*(${C4neg}+${C4pos})
variable C41 equal 0.5*(${C4neg}+${C4pos})
variable C41 equal 0.5*(5.27211908411254e-10+${C4pos})
variable C41 equal 0.5*(5.27211908411254e-10+-3.22684179781198e-10)
variable C5${dir} equal 0.5*(${C5neg}+${C5pos})
variable C51 equal 0.5*(${C5neg}+${C5pos})
variable C51 equal 0.5*(-9.7648107704679e-11+${C5pos})
variable C51 equal 0.5*(-9.7648107704679e-11+3.37388048671554e-10)
variable C6${dir} equal 0.5*(${C6neg}+${C6pos})
variable C61 equal 0.5*(${C6neg}+${C6pos})
variable C61 equal 0.5*(2.1467923323656e-10+${C6pos})
variable C61 equal 0.5*(2.1467923323656e-10+-3.7429353854266e-11)

# Delete dir to make sure it is not reused

variable dir delete

# uyy Perturbation

variable dir equal 2
include displace.mod
# NOTE: This script should not need to be
# modified. See in.elastic for more info.
#
# Find which reference length to use

if "${dir} == 1" then    "variable len0 equal ${lx0}"
if "${dir} == 2" then    "variable len0 equal ${ly0}"
variable len0 equal ${ly0}
variable len0 equal 9.2160000424006
if "${dir} == 3" then    "variable len0 equal ${lz0}"
if "${dir} == 4" then    "variable len0 equal ${lz0}"
if "${dir} == 5" then    "variable len0 equal ${lz0}"
if "${dir} == 6" then    "variable len0 equal ${ly0}"

# Reset box and simulation parameters

clear
box tilt large
read_restart restart.equil
Reading restart file ...
  restart file = 23 Jun 2022, LAMMPS = 23 Jun 2022
  restoring atom style atomic from restart
  triclinic box = (-4.608 -4.608 -4.608) to (4.608 4.608 4.608) with tilt (0 0 0)
  1 by 1 by 1 MPI processor grid
  pair style meam stores no restart info
  64 atoms
  read_restart CPU = 0.000 seconds
include potential.mod
# NOTE: This script can be modified for different pair styles
# See in.elastic for more info.

# Choose potential
pair_style	meam
pair_coeff * * library_ZrN.meam Zr N ZrN.meam Zr N
Reading MEAM library file library_ZrN.meam with DATE: 2015-02-12

# Setup neighbor style
neighbor 1.0 nsq
neigh_modify once no every 1 delay 0 check yes

# Setup minimization style
min_style	     cg
min_modify	     dmax ${dmax} line quadratic
min_modify	     dmax 0.01 line quadratic

# Setup output
thermo		1
thermo_style custom step temp pe press pxx pyy pzz pxy pxz pyz lx ly lz vol
thermo_modify norm no

# Negative deformation

variable delta equal -${up}*${len0}
variable delta equal -1e-05*${len0}
variable delta equal -1e-05*9.2160000424006
variable deltaxy equal -${up}*xy
variable deltaxy equal -1e-05*xy
variable deltaxz equal -${up}*xz
variable deltaxz equal -1e-05*xz
variable deltayz equal -${up}*yz
variable deltayz equal -1e-05*yz
if "${dir} == 1" then    "change_box all x delta 0 ${delta} xy delta ${deltaxy} xz delta ${deltaxz} remap units box"
if "${dir} == 2" then    "change_box all y delta 0 ${delta} yz delta ${deltayz} remap units box"
change_box all y delta 0 ${delta} yz delta ${deltayz} remap units box
change_box all y delta 0 -9.2160000424006e-05 yz delta ${deltayz} remap units box
change_box all y delta 0 -9.2160000424006e-05 yz delta -0 remap units box
Changing box ...
  triclinic box = (-4.608 -4.608 -4.608) to (4.608 4.6079079 4.608) with tilt (0 0 0)
  triclinic box = (-4.608 -4.608 -4.608) to (4.608 4.6079079 4.608) with tilt (0 0 0)
if "${dir} == 3" then    "change_box all z delta 0 ${delta} remap units box"
if "${dir} == 4" then    "change_box all yz delta ${delta} remap units box"
if "${dir} == 5" then    "change_box all xz delta ${delta} remap units box"
if "${dir} == 6" then    "change_box all xy delta ${delta} remap units box"

# Relax atoms positions

minimize ${etol} ${ftol} ${maxiter} ${maxeval}
minimize 0 ${ftol} ${maxiter} ${maxeval}
minimize 0 1e-12 ${maxiter} ${maxeval}
minimize 0 1e-12 1000 ${maxeval}
minimize 0 1e-12 1000 1000
Neighbor list info ...
  update every 1 steps, delay 0 steps, check yes
  max neighbors/atom: 2000, page size: 100000
  master list distance cutoff = 6.26
  ghost atom cutoff = 6.26
  2 neighbor lists, perpetual/occasional/extra = 2 0 0
  (1) pair meam, perpetual
      attributes: full, newton on
      pair build: full/nsq
      stencil: none
      bin: none
  (2) pair meam, perpetual, half/full from (1)
      attributes: half, newton on
      pair build: halffull/newton
      stencil: none
      bin: none
Per MPI rank memory allocation (min/avg/max) = 9.913 | 9.913 | 9.913 Mbytes
   Step          Temp          PotEng         Press           Pxx            Pyy            Pzz            Pxy            Pxz            Pyz             Lx             Ly             Lz           Volume    
         2   0             -472.768        21.532336      8.2627773      48.071454      8.262777       2.5073148e-08  5.2504207e-09  4.2265608e-08  9.216          9.2159079      9.216          782.74997    
         3   0             -472.768        21.532335      8.2627758      48.071453      8.2627759      1.1757402e-08 -8.3879018e-09 -8.2445092e-10  9.216          9.2159079      9.216          782.74997    
         4   0             -472.768        21.532335      8.2627758      48.071453      8.2627758      2.5409586e-09 -5.2476937e-09 -5.2766677e-10  9.216          9.2159079      9.216          782.74997    
         5   0             -472.768        21.532335      8.2627757      48.071453      8.2627757      1.57766e-09    1.4918744e-10  7.2718934e-12  9.216          9.2159079      9.216          782.74997    
         6   0             -472.768        21.532335      8.2627757      48.071453      8.2627757      1.9918171e-10  3.5200509e-10 -7.4536907e-11  9.216          9.2159079      9.216          782.74997    
         7   0             -472.768        21.532335      8.2627757      48.071453      8.2627757     -1.0339723e-11  1.3805235e-10  2.7724094e-11  9.216          9.2159079      9.216          782.74997    
         8   0             -472.768        21.532335      8.2627757      48.071453      8.2627757      1.9315967e-12  3.647309e-11   4.2722374e-11  9.216          9.2159079      9.216          782.74997    
         9   0             -472.768        21.532335      8.2627757      48.071453      8.2627757     -2.2042927e-11  9.7716068e-12  3.4541494e-11  9.216          9.2159079      9.216          782.74997    
        10   0             -472.768        21.532335      8.2627757      48.071453      8.2627757      9.4307368e-12  1.7952487e-11  2.04522e-11    9.216          9.2159079      9.216          782.74997    
        11   0             -472.768        21.532335      8.2627757      48.071453      8.2627757     -1.3407553e-11  1.1362333e-11 -4.9994267e-12  9.216          9.2159079      9.216          782.74997    
        12   0             -472.768        21.532335      8.2627757      48.071453      8.2627757     -4.3744984e-11  1.1135087e-11  6.2720081e-11  9.216          9.2159079      9.216          782.74997    
        13   0             -472.768        21.532335      8.2627757      48.071453      8.2627757     -7.9536334e-13  4.226788e-11   6.8174001e-12  9.216          9.2159079      9.216          782.74997    
        14   0             -472.768        21.532335      8.2627757      48.071453      8.2627757     -4.77218e-12    1.3748423e-11 -6.6356027e-11  9.216          9.2159079      9.216          782.74997    
        15   0             -472.768        21.532335      8.2627757      48.071453      8.2627757     -1.3180307e-11  1.7270747e-11 -2.3633654e-11  9.216          9.2159079      9.216          782.74997    
        16   0             -472.768        21.532335      8.2627757      48.071453      8.2627757      3.2950767e-12  4.4085854e-11  7.7263867e-12  9.216          9.2159079      9.216          782.74997    
        17   0             -472.768        21.532335      8.2627757      48.071453      8.2627757      5.9084134e-12 -1.840698e-11   1.0453347e-11  9.216          9.2159079      9.216          782.74997    
        18   0             -472.768        21.532335      8.2627757      48.071453      8.2627757      4.192701e-11   2.72696e-12   -3.4087e-11     9.216          9.2159079      9.216          782.74997    
        19   0             -472.768        21.532335      8.2627757      48.071453      8.2627757     -1.465741e-11   1.6929877e-11 -1.8179734e-12  9.216          9.2159079      9.216          782.74997    
        20   0             -472.768        21.532335      8.2627757      48.071453      8.2627757     -3.6359467e-12  2.829221e-11   4.8630787e-11  9.216          9.2159079      9.216          782.74997    
Loop time of 0.0402021 on 1 procs for 18 steps with 64 atoms

98.9% CPU use with 1 MPI tasks x no OpenMP threads

Minimization stats:
  Stopping criterion = force tolerance
  Energy initial, next-to-last, final = 
     -472.767999896139  -472.767999896518   -472.76799989652
  Force two-norm initial, final = 0.0001087259 5.7044257e-13
  Force max component initial, final = 2.4560988e-05 1.3700152e-13
  Final line search alpha, max atom move = 1 1.3700152e-13
  Iterations, force evaluations = 18 36

MPI task timing breakdown:
Section |  min time  |  avg time  |  max time  |%varavg| %total
---------------------------------------------------------------
Pair    | 0.039847   | 0.039847   | 0.039847   |   0.0 | 99.12
Neigh   | 0          | 0          | 0          |   0.0 |  0.00
Comm    | 9.4127e-05 | 9.4127e-05 | 9.4127e-05 |   0.0 |  0.23
Output  | 0.00016461 | 0.00016461 | 0.00016461 |   0.0 |  0.41
Modify  | 0          | 0          | 0          |   0.0 |  0.00
Other   |            | 9.604e-05  |            |       |  0.24

Nlocal:             64 ave          64 max          64 min
Histogram: 1 0 0 0 0 0 0 0 0 0
Nghost:            665 ave         665 max         665 min
Histogram: 1 0 0 0 0 0 0 0 0 0
Neighs:           2560 ave        2560 max        2560 min
Histogram: 1 0 0 0 0 0 0 0 0 0
FullNghs:         5120 ave        5120 max        5120 min
Histogram: 1 0 0 0 0 0 0 0 0 0

Total # of neighbors = 5120
Ave neighs/atom = 80
Neighbor list builds = 0
Dangerous builds = 0

# Obtain new stress tensor

variable tmp equal pxx
variable pxx1 equal ${tmp}
variable pxx1 equal 8.26277574198046
variable tmp equal pyy
variable pyy1 equal ${tmp}
variable pyy1 equal 48.0714531350257
variable tmp equal pzz
variable pzz1 equal ${tmp}
variable pzz1 equal 8.26277574190564
variable tmp equal pxy
variable pxy1 equal ${tmp}
variable pxy1 equal -3.63594670348913e-12
variable tmp equal pxz
variable pxz1 equal ${tmp}
variable pxz1 equal 2.82922102865248e-11
variable tmp equal pyz
variable pyz1 equal ${tmp}
variable pyz1 equal 4.86307871591671e-11

# Compute elastic constant from pressure tensor

variable C1neg equal ${d1}
variable C1neg equal 82.6277574254403
variable C2neg equal ${d2}
variable C2neg equal 480.714531356038
variable C3neg equal ${d3}
variable C3neg equal 82.6277574250375
variable C4neg equal ${d4}
variable C4neg equal 5.22666975031892e-10
variable C5neg equal ${d5}
variable C5neg equal 2.10271128747057e-10
variable C6neg equal ${d6}
variable C6neg equal 1.27189265683853e-10

# Reset box and simulation parameters

clear
box tilt large
read_restart restart.equil
Reading restart file ...
  restart file = 23 Jun 2022, LAMMPS = 23 Jun 2022
  restoring atom style atomic from restart
  triclinic box = (-4.608 -4.608 -4.608) to (4.608 4.608 4.608) with tilt (0 0 0)
  1 by 1 by 1 MPI processor grid
  pair style meam stores no restart info
  64 atoms
  read_restart CPU = 0.000 seconds
include potential.mod
# NOTE: This script can be modified for different pair styles
# See in.elastic for more info.

# Choose potential
pair_style	meam
pair_coeff * * library_ZrN.meam Zr N ZrN.meam Zr N
Reading MEAM library file library_ZrN.meam with DATE: 2015-02-12

# Setup neighbor style
neighbor 1.0 nsq
neigh_modify once no every 1 delay 0 check yes

# Setup minimization style
min_style	     cg
min_modify	     dmax ${dmax} line quadratic
min_modify	     dmax 0.01 line quadratic

# Setup output
thermo		1
thermo_style custom step temp pe press pxx pyy pzz pxy pxz pyz lx ly lz vol
thermo_modify norm no

# Positive deformation

variable delta equal ${up}*${len0}
variable delta equal 1e-05*${len0}
variable delta equal 1e-05*9.2160000424006
variable deltaxy equal ${up}*xy
variable deltaxy equal 1e-05*xy
variable deltaxz equal ${up}*xz
variable deltaxz equal 1e-05*xz
variable deltayz equal ${up}*yz
variable deltayz equal 1e-05*yz
if "${dir} == 1" then    "change_box all x delta 0 ${delta} xy delta ${deltaxy} xz delta ${deltaxz} remap units box"
if "${dir} == 2" then    "change_box all y delta 0 ${delta} yz delta ${deltayz} remap units box"
change_box all y delta 0 ${delta} yz delta ${deltayz} remap units box
change_box all y delta 0 9.2160000424006e-05 yz delta ${deltayz} remap units box
change_box all y delta 0 9.2160000424006e-05 yz delta 0 remap units box
Changing box ...
  triclinic box = (-4.608 -4.608 -4.608) to (4.608 4.6080922 4.608) with tilt (0 0 0)
  triclinic box = (-4.608 -4.608 -4.608) to (4.608 4.6080922 4.608) with tilt (0 0 0)
if "${dir} == 3" then    "change_box all z delta 0 ${delta} remap units box"
if "${dir} == 4" then    "change_box all yz delta ${delta} remap units box"
if "${dir} == 5" then    "change_box all xz delta ${delta} remap units box"
if "${dir} == 6" then    "change_box all xy delta ${delta} remap units box"

# Relax atoms positions

minimize ${etol} ${ftol} ${maxiter} ${maxeval}
minimize 0 ${ftol} ${maxiter} ${maxeval}
minimize 0 1e-12 ${maxiter} ${maxeval}
minimize 0 1e-12 1000 ${maxeval}
minimize 0 1e-12 1000 1000
Neighbor list info ...
  update every 1 steps, delay 0 steps, check yes
  max neighbors/atom: 2000, page size: 100000
  master list distance cutoff = 6.26
  ghost atom cutoff = 6.26
  2 neighbor lists, perpetual/occasional/extra = 2 0 0
  (1) pair meam, perpetual
      attributes: full, newton on
      pair build: full/nsq
      stencil: none
      bin: none
  (2) pair meam, perpetual, half/full from (1)
      attributes: half, newton on
      pair build: halffull/newton
      stencil: none
      bin: none
Per MPI rank memory allocation (min/avg/max) = 9.913 | 9.913 | 9.913 Mbytes
   Step          Temp          PotEng         Press           Pxx            Pyy            Pzz            Pxy            Pxz            Pyz             Lx             Ly             Lz           Volume    
         2   0             -472.768       -21.530639     -8.2623443     -48.067228     -8.2623446      2.5035833e-08  5.2199788e-09  4.2255673e-08  9.216          9.2160922      9.216          782.76563    
         3   0             -472.768       -21.53064      -8.2623458     -48.067229     -8.2623457      1.1785004e-08 -8.3672823e-09 -8.0898196e-10  9.216          9.2160922      9.216          782.76563    
         4   0             -472.768       -21.53064      -8.2623459     -48.067229     -8.2623459      2.5221603e-09 -5.2471343e-09 -4.6221048e-10  9.216          9.2160922      9.216          782.76563    
         5   0             -472.768       -21.53064      -8.2623459     -48.067229     -8.2623459      1.5679707e-09  1.7849869e-10 -9.4987208e-11  9.216          9.2160922      9.216          782.76563    
         6   0             -472.768       -21.53064      -8.2623459     -48.067229     -8.2623459      2.487165e-10   3.5177081e-10 -8.9533397e-11  9.216          9.2160922      9.216          782.76563    
         7   0             -472.768       -21.53064      -8.2623459     -48.067229     -8.2623459      4.8061709e-11  1.1918849e-10 -6.9081606e-11  9.216          9.2160922      9.216          782.76563    
         8   0             -472.768       -21.53064      -8.2623459     -48.067229     -8.2623459      3.4768045e-11  5.8628468e-11  6.5900216e-11  9.216          9.2160922      9.216          782.76563    
         9   0             -472.768       -21.53064      -8.2623459     -48.067229     -8.2623459      2.5110255e-11  2.7723539e-11 -3.7722193e-11  9.216          9.2160922      9.216          782.76563    
        10   0             -472.768       -21.53064      -8.2623459     -48.067229     -8.2623459     -5.453811e-12  -5.6810531e-12 -3.0450445e-11  9.216          9.2160922      9.216          782.76563    
        11   0             -472.768       -21.53064      -8.2623459     -48.067229     -8.2623459     -1.0225896e-12  7.9534743e-12  2.5905602e-11  9.216          9.2160922      9.216          782.76563    
        12   0             -472.768       -21.53064      -8.2623459     -48.067229     -8.2623459     -4.9311541e-11 -9.9986535e-12 -1.4543496e-11  9.216          9.2160922      9.216          782.76563    
        13   0             -472.768       -21.53064      -8.2623459     -48.067229     -8.2623459     -1.2498317e-12 -2.3065076e-11  3.4540803e-11  9.216          9.2160922      9.216          782.76563    
        14   0             -472.768       -21.53064      -8.2623459     -48.067229     -8.2623459     -4.2948761e-11 -3.1586655e-11 -4.817533e-11   9.216          9.2160922      9.216          782.76563    
        15   0             -472.768       -21.53064      -8.2623459     -48.067229     -8.2623459      5.2492931e-11 -2.4883013e-11 -7.6807838e-11  9.216          9.2160922      9.216          782.76563    
        16   0             -472.768       -21.53064      -8.2623459     -48.067229     -8.2623459     -4.919792e-11  -2.5905602e-11  1.499798e-11   9.216          9.2160922      9.216          782.76563    
        17   0             -472.768       -21.53064      -8.2623459     -48.067229     -8.2623459     -1.0907622e-11 -3.9653751e-11  6.317331e-11   9.216          9.2160922      9.216          782.76563    
        18   0             -472.768       -21.53064      -8.2623459     -48.067229     -8.2623459     -5.3401899e-12  1.9315581e-11 -1.9542823e-11  9.216          9.2160922      9.216          782.76563    
        19   0             -472.768       -21.53064      -8.2623459     -48.067229     -8.2623459     -1.0225896e-11  3.2154761e-11  9.089685e-12   9.216          9.2160922      9.216          782.76563    
        20   0             -472.768       -21.53064      -8.2623459     -48.067229     -8.2623459      9.6577903e-12 -1.0225896e-12 -7.2262995e-11  9.216          9.2160922      9.216          782.76563    
Loop time of 0.0370145 on 1 procs for 18 steps with 64 atoms

99.9% CPU use with 1 MPI tasks x no OpenMP threads

Minimization stats:
  Stopping criterion = force tolerance
  Energy initial, next-to-last, final = 
     -472.767999896146  -472.767999896524  -472.767999896524
  Force two-norm initial, final = 0.00010872137 5.64347e-13
  Force max component initial, final = 2.4561063e-05 1.3687191e-13
  Final line search alpha, max atom move = 1 1.3687191e-13
  Iterations, force evaluations = 18 36

MPI task timing breakdown:
Section |  min time  |  avg time  |  max time  |%varavg| %total
---------------------------------------------------------------
Pair    | 0.036714   | 0.036714   | 0.036714   |   0.0 | 99.19
Neigh   | 0          | 0          | 0          |   0.0 |  0.00
Comm    | 8.5136e-05 | 8.5136e-05 | 8.5136e-05 |   0.0 |  0.23
Output  | 0.00011686 | 0.00011686 | 0.00011686 |   0.0 |  0.32
Modify  | 0          | 0          | 0          |   0.0 |  0.00
Other   |            | 9.82e-05   |            |       |  0.27

Nlocal:             64 ave          64 max          64 min
Histogram: 1 0 0 0 0 0 0 0 0 0
Nghost:            665 ave         665 max         665 min
Histogram: 1 0 0 0 0 0 0 0 0 0
Neighs:           2560 ave        2560 max        2560 min
Histogram: 1 0 0 0 0 0 0 0 0 0
FullNghs:         5120 ave        5120 max        5120 min
Histogram: 1 0 0 0 0 0 0 0 0 0

Total # of neighbors = 5120
Ave neighs/atom = 80
Neighbor list builds = 0
Dangerous builds = 0

# Obtain new stress tensor

variable tmp equal pe
variable e1 equal ${tmp}
variable e1 equal -472.767999896524
variable tmp equal press
variable p1 equal ${tmp}
variable p1 equal -21.5306402256976
variable tmp equal pxx
variable pxx1 equal ${tmp}
variable pxx1 equal -8.26234588357265
variable tmp equal pyy
variable pyy1 equal ${tmp}
variable pyy1 equal -48.0672289099845
variable tmp equal pzz
variable pzz1 equal ${tmp}
variable pzz1 equal -8.2623458835357
variable tmp equal pxy
variable pxy1 equal ${tmp}
variable pxy1 equal 9.65779027340596e-12
variable tmp equal pxz
variable pxz1 equal ${tmp}
variable pxz1 equal -1.02258955836063e-12
variable tmp equal pyz
variable pyz1 equal ${tmp}
variable pyz1 equal -7.22629954574846e-11

# Compute elastic constant from pressure tensor

variable C1pos equal ${d1}
variable C1pos equal 82.6234588300908
variable C2pos equal ${d2}
variable C2pos equal 480.672289094064
variable C3pos equal ${d3}
variable C3pos equal 82.6234588293759
variable C4pos equal ${d4}
variable C4pos equal 6.86270851134625e-10
variable C5pos equal ${d5}
variable C5pos equal 8.28768697017975e-11
variable C6pos equal ${d6}
variable C6pos equal -2.60126635452804e-10

# Combine positive and negative

variable C1${dir} equal 0.5*(${C1neg}+${C1pos})
variable C12 equal 0.5*(${C1neg}+${C1pos})
variable C12 equal 0.5*(82.6277574254403+${C1pos})
variable C12 equal 0.5*(82.6277574254403+82.6234588300908)
variable C2${dir} equal 0.5*(${C2neg}+${C2pos})
variable C22 equal 0.5*(${C2neg}+${C2pos})
variable C22 equal 0.5*(480.714531356038+${C2pos})
variable C22 equal 0.5*(480.714531356038+480.672289094064)
variable C3${dir} equal 0.5*(${C3neg}+${C3pos})
variable C32 equal 0.5*(${C3neg}+${C3pos})
variable C32 equal 0.5*(82.6277574250375+${C3pos})
variable C32 equal 0.5*(82.6277574250375+82.6234588293759)
variable C4${dir} equal 0.5*(${C4neg}+${C4pos})
variable C42 equal 0.5*(${C4neg}+${C4pos})
variable C42 equal 0.5*(5.22666975031892e-10+${C4pos})
variable C42 equal 0.5*(5.22666975031892e-10+6.86270851134625e-10)
variable C5${dir} equal 0.5*(${C5neg}+${C5pos})
variable C52 equal 0.5*(${C5neg}+${C5pos})
variable C52 equal 0.5*(2.10271128747057e-10+${C5pos})
variable C52 equal 0.5*(2.10271128747057e-10+8.28768697017975e-11)
variable C6${dir} equal 0.5*(${C6neg}+${C6pos})
variable C62 equal 0.5*(${C6neg}+${C6pos})
variable C62 equal 0.5*(1.27189265683853e-10+${C6pos})
variable C62 equal 0.5*(1.27189265683853e-10+-2.60126635452804e-10)

# Delete dir to make sure it is not reused

variable dir delete

# uzz Perturbation

variable dir equal 3
include displace.mod
# NOTE: This script should not need to be
# modified. See in.elastic for more info.
#
# Find which reference length to use

if "${dir} == 1" then    "variable len0 equal ${lx0}"
if "${dir} == 2" then    "variable len0 equal ${ly0}"
if "${dir} == 3" then    "variable len0 equal ${lz0}"
variable len0 equal ${lz0}
variable len0 equal 9.2160000424006
if "${dir} == 4" then    "variable len0 equal ${lz0}"
if "${dir} == 5" then    "variable len0 equal ${lz0}"
if "${dir} == 6" then    "variable len0 equal ${ly0}"

# Reset box and simulation parameters

clear
box tilt large
read_restart restart.equil
Reading restart file ...
  restart file = 23 Jun 2022, LAMMPS = 23 Jun 2022
  restoring atom style atomic from restart
  triclinic box = (-4.608 -4.608 -4.608) to (4.608 4.608 4.608) with tilt (0 0 0)
  1 by 1 by 1 MPI processor grid
  pair style meam stores no restart info
  64 atoms
  read_restart CPU = 0.000 seconds
include potential.mod
# NOTE: This script can be modified for different pair styles
# See in.elastic for more info.

# Choose potential
pair_style	meam
pair_coeff * * library_ZrN.meam Zr N ZrN.meam Zr N
Reading MEAM library file library_ZrN.meam with DATE: 2015-02-12

# Setup neighbor style
neighbor 1.0 nsq
neigh_modify once no every 1 delay 0 check yes

# Setup minimization style
min_style	     cg
min_modify	     dmax ${dmax} line quadratic
min_modify	     dmax 0.01 line quadratic

# Setup output
thermo		1
thermo_style custom step temp pe press pxx pyy pzz pxy pxz pyz lx ly lz vol
thermo_modify norm no

# Negative deformation

variable delta equal -${up}*${len0}
variable delta equal -1e-05*${len0}
variable delta equal -1e-05*9.2160000424006
variable deltaxy equal -${up}*xy
variable deltaxy equal -1e-05*xy
variable deltaxz equal -${up}*xz
variable deltaxz equal -1e-05*xz
variable deltayz equal -${up}*yz
variable deltayz equal -1e-05*yz
if "${dir} == 1" then    "change_box all x delta 0 ${delta} xy delta ${deltaxy} xz delta ${deltaxz} remap units box"
if "${dir} == 2" then    "change_box all y delta 0 ${delta} yz delta ${deltayz} remap units box"
if "${dir} == 3" then    "change_box all z delta 0 ${delta} remap units box"
change_box all z delta 0 ${delta} remap units box
change_box all z delta 0 -9.2160000424006e-05 remap units box
Changing box ...
  triclinic box = (-4.608 -4.608 -4.608) to (4.608 4.608 4.6079079) with tilt (0 0 0)
if "${dir} == 4" then    "change_box all yz delta ${delta} remap units box"
if "${dir} == 5" then    "change_box all xz delta ${delta} remap units box"
if "${dir} == 6" then    "change_box all xy delta ${delta} remap units box"

# Relax atoms positions

minimize ${etol} ${ftol} ${maxiter} ${maxeval}
minimize 0 ${ftol} ${maxiter} ${maxeval}
minimize 0 1e-12 ${maxiter} ${maxeval}
minimize 0 1e-12 1000 ${maxeval}
minimize 0 1e-12 1000 1000
Neighbor list info ...
  update every 1 steps, delay 0 steps, check yes
  max neighbors/atom: 2000, page size: 100000
  master list distance cutoff = 6.26
  ghost atom cutoff = 6.26
  2 neighbor lists, perpetual/occasional/extra = 2 0 0
  (1) pair meam, perpetual
      attributes: full, newton on
      pair build: full/nsq
      stencil: none
      bin: none
  (2) pair meam, perpetual, half/full from (1)
      attributes: half, newton on
      pair build: halffull/newton
      stencil: none
      bin: none
Per MPI rank memory allocation (min/avg/max) = 9.913 | 9.913 | 9.913 Mbytes
   Step          Temp          PotEng         Press           Pxx            Pyy            Pzz            Pxy            Pxz            Pyz             Lx             Ly             Lz           Volume    
         2   0             -472.768        21.532336      8.2627773      8.262777       48.071454      2.5029062e-08  5.2841668e-09  4.2272425e-08  9.216          9.216          9.2159079      782.74997    
         3   0             -472.768        21.532335      8.2627758      8.2627758      48.071453      1.1752857e-08 -8.3872201e-09 -8.8853448e-10  9.216          9.216          9.2159079      782.74997    
         4   0             -472.768        21.532335      8.2627758      8.2627757      48.071453      2.5402769e-09 -5.2743952e-09 -5.1630443e-10  9.216          9.216          9.2159079      782.74997    
         5   0             -472.768        21.532335      8.2627757      8.2627757      48.071453      1.5824322e-09  1.5907267e-10 -5.9084134e-12  9.216          9.216          9.2159079      782.74997    
         6   0             -472.768        21.532335      8.2627757      8.2627757      48.071453      2.5599337e-10  4.0461269e-10 -1.499828e-10   9.216          9.216          9.2159079      782.74997    
         7   0             -472.768        21.532335      8.2627757      8.2627757      48.071453      2.897395e-11   1.9020546e-10 -3.4995987e-11  9.216          9.216          9.2159079      782.74997    
         8   0             -472.768        21.532335      8.2627757      8.2627757      48.071453      4.77218e-12    2.5678874e-11  7.7263867e-12  9.216          9.216          9.2159079      782.74997    
         9   0             -472.768        21.532335      8.2627757      8.2627757      48.071453     -3.06783e-12    4.5449334e-12 -3.7722947e-11  9.216          9.216          9.2159079      782.74997    
        10   0             -472.768        21.532335      8.2627757      8.2627757      48.071453      2.2611044e-11  3.0791924e-11  1.4543787e-11  9.216          9.216          9.2159079      782.74997    
        11   0             -472.768        21.532335      8.2627757      8.2627757      48.071453     -1.8861474e-11 -7.8400101e-12 -8.1808801e-12  9.216          9.216          9.2159079      782.74997    
        12   0             -472.768        21.532335      8.2627757      8.2627757      48.071453      1.9884084e-11  1.5452773e-11 -1.3180307e-11  9.216          9.216          9.2159079      782.74997    
        13   0             -472.768        21.532335      8.2627757      8.2627757      48.071453      4.363136e-11  -6.0220367e-12 -1.090784e-11   9.216          9.216          9.2159079      782.74997    
        14   0             -472.768        21.532335      8.2627757      8.2627757      48.071453      3.8063817e-11 -3.238265e-11  -4.5449334e-11  9.216          9.216          9.2159079      782.74997    
        15   0             -472.768        21.532335      8.2627757      8.2627757      48.071453      2.5338004e-11  5.1130501e-12  5.4539201e-12  9.216          9.216          9.2159079      782.74997    
        16   0             -472.768        21.532335      8.2627757      8.2627757      48.071453     -4.4426724e-11  3.8631934e-12 -7.8172854e-11  9.216          9.216          9.2159079      782.74997    
        17   0             -472.768        21.532335      8.2627757      8.2627757      48.071453     -3.4995987e-11  3.306439e-11  -6.5901534e-11  9.216          9.216          9.2159079      782.74997    
        18   0             -472.768        21.532335      8.2627757      8.2627757      48.071453     -4.158614e-11   2.1588434e-11  9.9988534e-12  9.216          9.216          9.2159079      782.74997    
        19   0             -472.768        21.532335      8.2627757      8.2627757      48.071453     -1.499828e-11   1.874785e-11   3.545048e-11   9.216          9.216          9.2159079      782.74997    
        20   0             -472.768        21.532335      8.2627757      8.2627757      48.071453     -7.4991401e-12 -2.2724667e-12 -5.7266161e-11  9.216          9.216          9.2159079      782.74997    
Loop time of 0.037878 on 1 procs for 18 steps with 64 atoms

99.8% CPU use with 1 MPI tasks x no OpenMP threads

Minimization stats:
  Stopping criterion = force tolerance
  Energy initial, next-to-last, final = 
     -472.767999896139  -472.767999896519  -472.767999896521
  Force two-norm initial, final = 0.00010872582 5.2594033e-13
  Force max component initial, final = 2.4562856e-05 1.0436096e-13
  Final line search alpha, max atom move = 1 1.0436096e-13
  Iterations, force evaluations = 18 36

MPI task timing breakdown:
Section |  min time  |  avg time  |  max time  |%varavg| %total
---------------------------------------------------------------
Pair    | 0.03756    | 0.03756    | 0.03756    |   0.0 | 99.16
Neigh   | 0          | 0          | 0          |   0.0 |  0.00
Comm    | 8.676e-05  | 8.676e-05  | 8.676e-05  |   0.0 |  0.23
Output  | 0.00014679 | 0.00014679 | 0.00014679 |   0.0 |  0.39
Modify  | 0          | 0          | 0          |   0.0 |  0.00
Other   |            | 8.48e-05   |            |       |  0.22

Nlocal:             64 ave          64 max          64 min
Histogram: 1 0 0 0 0 0 0 0 0 0
Nghost:            665 ave         665 max         665 min
Histogram: 1 0 0 0 0 0 0 0 0 0
Neighs:           2560 ave        2560 max        2560 min
Histogram: 1 0 0 0 0 0 0 0 0 0
FullNghs:         5120 ave        5120 max        5120 min
Histogram: 1 0 0 0 0 0 0 0 0 0

Total # of neighbors = 5120
Ave neighs/atom = 80
Neighbor list builds = 0
Dangerous builds = 0

# Obtain new stress tensor

variable tmp equal pxx
variable pxx1 equal ${tmp}
variable pxx1 equal 8.26277574192759
variable tmp equal pyy
variable pyy1 equal ${tmp}
variable pyy1 equal 8.26277574194722
variable tmp equal pzz
variable pzz1 equal ${tmp}
variable pzz1 equal 48.0714531350739
variable tmp equal pxy
variable pxy1 equal ${tmp}
variable pxy1 equal -7.49914007594634e-12
variable tmp equal pxz
variable pxz1 equal ${tmp}
variable pxz1 equal -2.27246668968071e-12
variable tmp equal pyz
variable pyz1 equal ${tmp}
variable pyz1 equal -5.72661605799538e-11

# Compute elastic constant from pressure tensor

variable C1neg equal ${d1}
variable C1neg equal 82.6277574249115
variable C2neg equal ${d2}
variable C2neg equal 82.6277574252533
variable C3neg equal ${d3}
variable C3neg equal 480.71453135672
variable C4neg equal ${d4}
variable C4neg equal -5.36302502359317e-10
variable C5neg equal ${d5}
variable C5neg equal -9.53756410149983e-11
variable C6neg equal ${d6}
variable C6neg equal 8.85573319592806e-11

# Reset box and simulation parameters

clear
box tilt large
read_restart restart.equil
Reading restart file ...
  restart file = 23 Jun 2022, LAMMPS = 23 Jun 2022
  restoring atom style atomic from restart
  triclinic box = (-4.608 -4.608 -4.608) to (4.608 4.608 4.608) with tilt (0 0 0)
  1 by 1 by 1 MPI processor grid
  pair style meam stores no restart info
  64 atoms
  read_restart CPU = 0.000 seconds
include potential.mod
# NOTE: This script can be modified for different pair styles
# See in.elastic for more info.

# Choose potential
pair_style	meam
pair_coeff * * library_ZrN.meam Zr N ZrN.meam Zr N
Reading MEAM library file library_ZrN.meam with DATE: 2015-02-12

# Setup neighbor style
neighbor 1.0 nsq
neigh_modify once no every 1 delay 0 check yes

# Setup minimization style
min_style	     cg
min_modify	     dmax ${dmax} line quadratic
min_modify	     dmax 0.01 line quadratic

# Setup output
thermo		1
thermo_style custom step temp pe press pxx pyy pzz pxy pxz pyz lx ly lz vol
thermo_modify norm no

# Positive deformation

variable delta equal ${up}*${len0}
variable delta equal 1e-05*${len0}
variable delta equal 1e-05*9.2160000424006
variable deltaxy equal ${up}*xy
variable deltaxy equal 1e-05*xy
variable deltaxz equal ${up}*xz
variable deltaxz equal 1e-05*xz
variable deltayz equal ${up}*yz
variable deltayz equal 1e-05*yz
if "${dir} == 1" then    "change_box all x delta 0 ${delta} xy delta ${deltaxy} xz delta ${deltaxz} remap units box"
if "${dir} == 2" then    "change_box all y delta 0 ${delta} yz delta ${deltayz} remap units box"
if "${dir} == 3" then    "change_box all z delta 0 ${delta} remap units box"
change_box all z delta 0 ${delta} remap units box
change_box all z delta 0 9.2160000424006e-05 remap units box
Changing box ...
  triclinic box = (-4.608 -4.608 -4.608) to (4.608 4.608 4.6080922) with tilt (0 0 0)
if "${dir} == 4" then    "change_box all yz delta ${delta} remap units box"
if "${dir} == 5" then    "change_box all xz delta ${delta} remap units box"
if "${dir} == 6" then    "change_box all xy delta ${delta} remap units box"

# Relax atoms positions

minimize ${etol} ${ftol} ${maxiter} ${maxeval}
minimize 0 ${ftol} ${maxiter} ${maxeval}
minimize 0 1e-12 ${maxiter} ${maxeval}
minimize 0 1e-12 1000 ${maxeval}
minimize 0 1e-12 1000 1000
Neighbor list info ...
  update every 1 steps, delay 0 steps, check yes
  max neighbors/atom: 2000, page size: 100000
  master list distance cutoff = 6.26
  ghost atom cutoff = 6.26
  2 neighbor lists, perpetual/occasional/extra = 2 0 0
  (1) pair meam, perpetual
      attributes: full, newton on
      pair build: full/nsq
      stencil: none
      bin: none
  (2) pair meam, perpetual, half/full from (1)
      attributes: half, newton on
      pair build: halffull/newton
      stencil: none
      bin: none
Per MPI rank memory allocation (min/avg/max) = 9.913 | 9.913 | 9.913 Mbytes
   Step          Temp          PotEng         Press           Pxx            Pyy            Pzz            Pxy            Pxz            Pyz             Lx             Ly             Lz           Volume    
         2   0             -472.768       -21.530639     -8.2623443     -8.2623446     -48.067228      2.5034469e-08  5.2788345e-09  4.2242947e-08  9.216          9.216          9.2160922      782.76563    
         3   0             -472.768       -21.53064      -8.2623458     -8.2623458     -48.067229      1.1750009e-08 -8.439318e-09  -8.5942971e-10  9.216          9.216          9.2160922      782.76563    
         4   0             -472.768       -21.53064      -8.2623459     -8.2623459     -48.067229      2.5534061e-09 -5.2598598e-09 -4.9811474e-10  9.216          9.216          9.2160922      782.76563    
         5   0             -472.768       -21.53064      -8.2623459     -8.2623459     -48.067229      1.597853e-09   1.4361702e-10 -2.4542149e-11  9.216          9.216          9.2160922      782.76563    
         6   0             -472.768       -21.53064      -8.2623459     -8.2623459     -48.067229      2.3224145e-10  3.1677552e-10 -1.1453003e-10  9.216          9.216          9.2160922      782.76563    
         7   0             -472.768       -21.53064      -8.2623459     -8.2623459     -48.067229      1.1589348e-11  1.3793597e-10  8.6352007e-12  9.216          9.216          9.2160922      782.76563    
         8   0             -472.768       -21.53064      -8.2623459     -8.2623459     -48.067229      2.4428528e-11  1.7043159e-12  3.1813897e-11  9.216          9.216          9.2160922      782.76563    
         9   0             -472.768       -21.53064      -8.2623459     -8.2623459     -48.067229      3.7949435e-11 -6.6695563e-11 -2.5451118e-11  9.216          9.216          9.2160922      782.76563    
        10   0             -472.768       -21.53064      -8.2623459     -8.2623459     -48.067229     -9.203306e-12   1.6815917e-11  2.4996634e-11  9.216          9.216          9.2160922      782.76563    
        11   0             -472.768       -21.53064      -8.2623459     -8.2623459     -48.067229      4.5107562e-11  3.4086319e-12  6.8172637e-12  9.216          9.216          9.2160922      782.76563    
        12   0             -472.768       -21.53064      -8.2623459     -8.2623459     -48.067229     -1.6702296e-11  1.4770738e-12  3.9994614e-11  9.216          9.216          9.2160922      782.76563    
        13   0             -472.768       -21.53064      -8.2623459     -8.2623459     -48.067229      1.0112275e-11  3.7040466e-11 -4.7266362e-11  9.216          9.216          9.2160922      782.76563    
        14   0             -472.768       -21.53064      -8.2623459     -8.2623459     -48.067229     -1.0339517e-11  8.6352007e-12 -6.1355374e-11  9.216          9.216          9.2160922      782.76563    
        15   0             -472.768       -21.53064      -8.2623459     -8.2623459     -48.067229      7.0445058e-12 -2.4314907e-11  3.635874e-11   9.216          9.216          9.2160922      782.76563    
        16   0             -472.768       -21.53064      -8.2623459     -8.2623459     -48.067229     -1.2611938e-11  1.1362106e-11 -6.5445732e-11  9.216          9.216          9.2160922      782.76563    
        17   0             -472.768       -21.53064      -8.2623459     -8.2623459     -48.067229      2.0451791e-12 -7.7262322e-12 -1.817937e-12   9.216          9.216          9.2160922      782.76563    
        18   0             -472.768       -21.53064      -8.2623459     -8.2623459     -48.067229     -5.453811e-12   2.4996634e-12 -3.7267708e-11  9.216          9.216          9.2160922      782.76563    
        19   0             -472.768       -21.53064      -8.2623459     -8.2623459     -48.067229      6.9308848e-12  8.8624428e-12 -1.0907622e-11  9.216          9.216          9.2160922      782.76563    
        20   0             -472.768       -21.53064      -8.2623459     -8.2623459     -48.067229      2.567836e-11  -2.4314907e-11 -6.317331e-11   9.216          9.216          9.2160922      782.76563    
Loop time of 0.0374652 on 1 procs for 18 steps with 64 atoms

99.7% CPU use with 1 MPI tasks x no OpenMP threads

Minimization stats:
  Stopping criterion = force tolerance
  Energy initial, next-to-last, final = 
     -472.767999896146  -472.767999896524  -472.767999896524
  Force two-norm initial, final = 0.00010872144 5.2774575e-13
  Force max component initial, final = 2.4559195e-05 1.0962782e-13
  Final line search alpha, max atom move = 1 1.0962782e-13
  Iterations, force evaluations = 18 36

MPI task timing breakdown:
Section |  min time  |  avg time  |  max time  |%varavg| %total
---------------------------------------------------------------
Pair    | 0.037174   | 0.037174   | 0.037174   |   0.0 | 99.22
Neigh   | 0          | 0          | 0          |   0.0 |  0.00
Comm    | 8.7015e-05 | 8.7015e-05 | 8.7015e-05 |   0.0 |  0.23
Output  | 0.00012082 | 0.00012082 | 0.00012082 |   0.0 |  0.32
Modify  | 0          | 0          | 0          |   0.0 |  0.00
Other   |            | 8.361e-05  |            |       |  0.22

Nlocal:             64 ave          64 max          64 min
Histogram: 1 0 0 0 0 0 0 0 0 0
Nghost:            665 ave         665 max         665 min
Histogram: 1 0 0 0 0 0 0 0 0 0
Neighs:           2560 ave        2560 max        2560 min
Histogram: 1 0 0 0 0 0 0 0 0 0
FullNghs:         5120 ave        5120 max        5120 min
Histogram: 1 0 0 0 0 0 0 0 0 0

Total # of neighbors = 5120
Ave neighs/atom = 80
Neighbor list builds = 0
Dangerous builds = 0

# Obtain new stress tensor

variable tmp equal pe
variable e1 equal ${tmp}
variable e1 equal -472.767999896524
variable tmp equal press
variable p1 equal ${tmp}
variable p1 equal -21.5306402257306
variable tmp equal pxx
variable pxx1 equal ${tmp}
variable pxx1 equal -8.26234588358886
variable tmp equal pyy
variable pyy1 equal ${tmp}
variable pyy1 equal -8.26234588357933
variable tmp equal pzz
variable pzz1 equal ${tmp}
variable pzz1 equal -48.0672289100236
variable tmp equal pxy
variable pxy1 equal ${tmp}
variable pxy1 equal 2.56783600210558e-11
variable tmp equal pxz
variable pxz1 equal ${tmp}
variable pxz1 equal -2.4314907276575e-11
variable tmp equal pyz
variable pyz1 equal ${tmp}
variable pyz1 equal -6.3173310494279e-11

# Compute elastic constant from pressure tensor

variable C1pos equal ${d1}
variable C1pos equal 82.6234588302529
variable C2pos equal ${d2}
variable C2pos equal 82.6234588300122
variable C3pos equal ${d3}
variable C3pos equal 480.672289094255
variable C4pos equal ${d4}
variable C4pos equal 5.95374001502569e-10
variable C5pos equal ${d5}
variable C5pos equal 3.15800046883941e-10
variable C6pos equal ${d6}
variable C6pos equal -4.20332332929302e-10

# Combine positive and negative

variable C1${dir} equal 0.5*(${C1neg}+${C1pos})
variable C13 equal 0.5*(${C1neg}+${C1pos})
variable C13 equal 0.5*(82.6277574249115+${C1pos})
variable C13 equal 0.5*(82.6277574249115+82.6234588302529)
variable C2${dir} equal 0.5*(${C2neg}+${C2pos})
variable C23 equal 0.5*(${C2neg}+${C2pos})
variable C23 equal 0.5*(82.6277574252533+${C2pos})
variable C23 equal 0.5*(82.6277574252533+82.6234588300122)
variable C3${dir} equal 0.5*(${C3neg}+${C3pos})
variable C33 equal 0.5*(${C3neg}+${C3pos})
variable C33 equal 0.5*(480.71453135672+${C3pos})
variable C33 equal 0.5*(480.71453135672+480.672289094255)
variable C4${dir} equal 0.5*(${C4neg}+${C4pos})
variable C43 equal 0.5*(${C4neg}+${C4pos})
variable C43 equal 0.5*(-5.36302502359317e-10+${C4pos})
variable C43 equal 0.5*(-5.36302502359317e-10+5.95374001502569e-10)
variable C5${dir} equal 0.5*(${C5neg}+${C5pos})
variable C53 equal 0.5*(${C5neg}+${C5pos})
variable C53 equal 0.5*(-9.53756410149983e-11+${C5pos})
variable C53 equal 0.5*(-9.53756410149983e-11+3.15800046883941e-10)
variable C6${dir} equal 0.5*(${C6neg}+${C6pos})
variable C63 equal 0.5*(${C6neg}+${C6pos})
variable C63 equal 0.5*(8.85573319592806e-11+${C6pos})
variable C63 equal 0.5*(8.85573319592806e-11+-4.20332332929302e-10)

# Delete dir to make sure it is not reused

variable dir delete

# uyz Perturbation

variable dir equal 4
include displace.mod
# NOTE: This script should not need to be
# modified. See in.elastic for more info.
#
# Find which reference length to use

if "${dir} == 1" then    "variable len0 equal ${lx0}"
if "${dir} == 2" then    "variable len0 equal ${ly0}"
if "${dir} == 3" then    "variable len0 equal ${lz0}"
if "${dir} == 4" then    "variable len0 equal ${lz0}"
variable len0 equal ${lz0}
variable len0 equal 9.2160000424006
if "${dir} == 5" then    "variable len0 equal ${lz0}"
if "${dir} == 6" then    "variable len0 equal ${ly0}"

# Reset box and simulation parameters

clear
box tilt large
read_restart restart.equil
Reading restart file ...
  restart file = 23 Jun 2022, LAMMPS = 23 Jun 2022
  restoring atom style atomic from restart
  triclinic box = (-4.608 -4.608 -4.608) to (4.608 4.608 4.608) with tilt (0 0 0)
  1 by 1 by 1 MPI processor grid
  pair style meam stores no restart info
  64 atoms
  read_restart CPU = 0.000 seconds
include potential.mod
# NOTE: This script can be modified for different pair styles
# See in.elastic for more info.

# Choose potential
pair_style	meam
pair_coeff * * library_ZrN.meam Zr N ZrN.meam Zr N
Reading MEAM library file library_ZrN.meam with DATE: 2015-02-12

# Setup neighbor style
neighbor 1.0 nsq
neigh_modify once no every 1 delay 0 check yes

# Setup minimization style
min_style	     cg
min_modify	     dmax ${dmax} line quadratic
min_modify	     dmax 0.01 line quadratic

# Setup output
thermo		1
thermo_style custom step temp pe press pxx pyy pzz pxy pxz pyz lx ly lz vol
thermo_modify norm no

# Negative deformation

variable delta equal -${up}*${len0}
variable delta equal -1e-05*${len0}
variable delta equal -1e-05*9.2160000424006
variable deltaxy equal -${up}*xy
variable deltaxy equal -1e-05*xy
variable deltaxz equal -${up}*xz
variable deltaxz equal -1e-05*xz
variable deltayz equal -${up}*yz
variable deltayz equal -1e-05*yz
if "${dir} == 1" then    "change_box all x delta 0 ${delta} xy delta ${deltaxy} xz delta ${deltaxz} remap units box"
if "${dir} == 2" then    "change_box all y delta 0 ${delta} yz delta ${deltayz} remap units box"
if "${dir} == 3" then    "change_box all z delta 0 ${delta} remap units box"
if "${dir} == 4" then    "change_box all yz delta ${delta} remap units box"
change_box all yz delta ${delta} remap units box
change_box all yz delta -9.2160000424006e-05 remap units box
Changing box ...
  triclinic box = (-4.608 -4.608 -4.608) to (4.608 4.608 4.608) with tilt (0 0 -9.216e-05)
if "${dir} == 5" then    "change_box all xz delta ${delta} remap units box"
if "${dir} == 6" then    "change_box all xy delta ${delta} remap units box"

# Relax atoms positions

minimize ${etol} ${ftol} ${maxiter} ${maxeval}
minimize 0 ${ftol} ${maxiter} ${maxeval}
minimize 0 1e-12 ${maxiter} ${maxeval}
minimize 0 1e-12 1000 ${maxeval}
minimize 0 1e-12 1000 1000
Neighbor list info ...
  update every 1 steps, delay 0 steps, check yes
  max neighbors/atom: 2000, page size: 100000
  master list distance cutoff = 6.26
  ghost atom cutoff = 6.26
  2 neighbor lists, perpetual/occasional/extra = 2 0 0
  (1) pair meam, perpetual
      attributes: full, newton on
      pair build: full/nsq
      stencil: none
      bin: none
  (2) pair meam, perpetual, half/full from (1)
      attributes: half, newton on
      pair build: halffull/newton
      stencil: none
      bin: none
Per MPI rank memory allocation (min/avg/max) = 9.913 | 9.913 | 9.913 Mbytes
   Step          Temp          PotEng         Press           Pxx            Pyy            Pzz            Pxy            Pxz            Pyz             Lx             Ly             Lz           Volume    
         2   0             -472.768        5.4329367e-07 -3.236365e-05  -6.3639761e-06  4.0357507e-05  2.5070056e-08  5.2757059e-09  12.287442      9.216          9.216          9.216          782.7578     
         3   0             -472.768       -7.1737815e-07 -3.384108e-05  -7.5488007e-06  3.9237747e-05  1.1741718e-08 -8.4281538e-09  12.287442      9.216          9.216          9.216          782.7578     
         4   0             -472.768       -8.2565019e-07 -3.3922634e-05 -7.6358217e-06  3.9081505e-05  2.5490004e-09 -5.2679796e-09  12.287442      9.216          9.216          9.216          782.7578     
         5   0             -472.768       -8.3266091e-07 -3.3930918e-05 -7.6419345e-06  3.907487e-05   1.5741219e-09  1.3202899e-10  12.287442      9.216          9.216          9.216          782.7578     
         6   0             -472.768       -8.3352059e-07 -3.3930914e-05 -7.6421177e-06  3.907247e-05   2.159958e-10   3.5961426e-10  12.287442      9.216          9.216          9.216          782.7578     
         7   0             -472.768       -8.3447993e-07 -3.3932076e-05 -7.643043e-06   3.9071679e-05  1.3066553e-11  1.125996e-10   12.287442      9.216          9.216          9.216          782.7578     
         8   0             -472.768       -8.345819e-07  -3.3932223e-05 -7.6430999e-06  3.9071578e-05  4.5903368e-11  8.9193426e-11  12.287442      9.216          9.216          9.216          782.7578     
[...]
variable pxx1 equal ${tmp}
variable pxx1 equal -7.64340090735834e-06
variable tmp equal pyy
variable pyy1 equal ${tmp}
variable pyy1 equal 3.90712934907701e-05
variable tmp equal pzz
variable pzz1 equal ${tmp}
variable pzz1 equal -3.39324137051715e-05
variable tmp equal pxy
variable pxy1 equal ${tmp}
variable pxy1 equal 12.2874421011736
variable tmp equal pxz
variable pxz1 equal ${tmp}
variable pxz1 equal -2.49968836151519e-12
variable tmp equal pyz
variable pyz1 equal ${tmp}
variable pyz1 equal -1.45436413760884e-11

# Compute elastic constant from pressure tensor

variable C1neg equal ${d1}
variable C1neg equal -7.64283734128123e-05
variable C2neg equal ${d2}
variable C2neg equal 0.000390718716005148
variable C3neg equal ${d3}
variable C3neg equal -0.000339318155979199
variable C4neg equal ${d4}
variable C4neg equal -1.09077310320663e-10
variable C5neg equal ${d5}
variable C5neg equal -9.76478577333431e-11
variable C6neg equal ${d6}
variable C6neg equal 122.8744210119

# Reset box and simulation parameters

clear
box tilt large
read_restart restart.equil
Reading restart file ...
  restart file = 23 Jun 2022, LAMMPS = 23 Jun 2022
  restoring atom style atomic from restart
  triclinic box = (-4.608 -4.608 -4.608) to (4.608 4.608 4.608) with tilt (0 0 0)
  1 by 1 by 1 MPI processor grid
  pair style meam stores no restart info
  64 atoms
  read_restart CPU = 0.000 seconds
include potential.mod
# NOTE: This script can be modified for different pair styles
# See in.elastic for more info.

# Choose potential
pair_style	meam
pair_coeff * * library_ZrN.meam Zr N ZrN.meam Zr N
Reading MEAM library file library_ZrN.meam with DATE: 2015-02-12

# Setup neighbor style
neighbor 1.0 nsq
neigh_modify once no every 1 delay 0 check yes

# Setup minimization style
min_style	     cg
min_modify	     dmax ${dmax} line quadratic
min_modify	     dmax 0.01 line quadratic

# Setup output
thermo		1
thermo_style custom step temp pe press pxx pyy pzz pxy pxz pyz lx ly lz vol
thermo_modify norm no

# Positive deformation

variable delta equal ${up}*${len0}
variable delta equal 1e-05*${len0}
variable delta equal 1e-05*9.2160000424006
variable deltaxy equal ${up}*xy
variable deltaxy equal 1e-05*xy
variable deltaxz equal ${up}*xz
variable deltaxz equal 1e-05*xz
variable deltayz equal ${up}*yz
variable deltayz equal 1e-05*yz
if "${dir} == 1" then    "change_box all x delta 0 ${delta} xy delta ${deltaxy} xz delta ${deltaxz} remap units box"
if "${dir} == 2" then    "change_box all y delta 0 ${delta} yz delta ${deltayz} remap units box"
if "${dir} == 3" then    "change_box all z delta 0 ${delta} remap units box"
if "${dir} == 4" then    "change_box all yz delta ${delta} remap units box"
if "${dir} == 5" then    "change_box all xz delta ${delta} remap units box"
if "${dir} == 6" then    "change_box all xy delta ${delta} remap units box"
change_box all xy delta ${delta} remap units box
change_box all xy delta 9.2160000424006e-05 remap units box
Changing box ...
  triclinic box = (-4.608 -4.608 -4.608) to (4.608 4.608 4.608) with tilt (9.216e-05 0 0)

# Relax atoms positions

minimize ${etol} ${ftol} ${maxiter} ${maxeval}
minimize 0 ${ftol} ${maxiter} ${maxeval}
minimize 0 1e-12 ${maxiter} ${maxeval}
minimize 0 1e-12 1000 ${maxeval}
minimize 0 1e-12 1000 1000
Neighbor list info ...
  update every 1 steps, delay 0 steps, check yes
  max neighbors/atom: 2000, page size: 100000
  master list distance cutoff = 6.26
  ghost atom cutoff = 6.26
  2 neighbor lists, perpetual/occasional/extra = 2 0 0
  (1) pair meam, perpetual
      attributes: full, newton on
      pair build: full/nsq
      stencil: none
      bin: none
  (2) pair meam, perpetual, half/full from (1)
      attributes: half, newton on
      pair build: halffull/newton
      stencil: none
      bin: none
Per MPI rank memory allocation (min/avg/max) = 9.913 | 9.913 | 9.913 Mbytes
   Step          Temp          PotEng         Press           Pxx            Pyy            Pzz            Pxy            Pxz            Pyz             Lx             Ly             Lz           Volume    
         2   0             -472.768        5.4331716e-07 -6.0747382e-06  4.0351036e-05 -3.2646347e-05 -12.287442      5.2684341e-09  4.2250187e-08  9.216          9.216          9.216          782.7578     
         3   0             -472.768       -7.1733206e-07 -7.5520248e-06  3.9166104e-05 -3.3766076e-05 -12.287442     -8.4129284e-09 -9.1943083e-10  9.216          9.216          9.216          782.7578     
         4   0             -472.768       -8.256655e-07  -7.6337054e-06  3.907911e-05  -3.3922401e-05 -12.287442     -5.2610486e-09 -5.1039091e-10  9.216          9.216          9.216          782.7578     
         5   0             -472.768       -8.3263766e-07 -7.6418508e-06  3.9072981e-05 -3.3929044e-05 -12.287442      9.8851312e-11 -1.4816335e-10  9.216          9.216          9.216          782.7578     
         6   0             -472.768       -8.3341695e-07 -7.6418037e-06  3.9072796e-05 -3.3931243e-05 -12.287442      3.6949939e-10 -8.1353494e-11  9.216          9.216          9.216          782.7578     
         7   0             -472.768       -8.3452249e-07 -7.6431472e-06  3.9071763e-05 -3.3932183e-05 -12.287442      1.8349985e-10 -3.1814216e-11  9.216          9.216          9.216          782.7578     
         8   0             -472.768       -8.3464515e-07 -7.6433222e-06  3.9071642e-05 -3.3932255e-05 -12.287442      2.4428773e-11 -5.5902122e-11  9.216          9.216          9.216          782.7578     
         9   0             -472.768       -8.3469586e-07 -7.6432855e-06  3.9071555e-05 -3.3932357e-05 -12.287442     -2.2838062e-11  5.9083543e-12  9.216          9.216          9.216          782.7578     
        10   0             -472.768       -8.3475374e-07 -7.6434273e-06  3.907156e-05  -3.3932394e-05 -12.287442      2.6133106e-12  2.4996884e-11  9.216          9.216          9.216          782.7578     
        11   0             -472.768       -8.3471558e-07 -7.6433649e-06  3.9071569e-05 -3.3932351e-05 -12.287442      4.2608324e-11 -5.3175189e-11  9.216          9.216          9.216          782.7578     
        12   0             -472.768       -8.347783e-07  -7.6433849e-06  3.9071463e-05 -3.3932413e-05 -12.287442      1.1930331e-11 -2.7269328e-12  9.216          9.216          9.216          782.7578     
        13   0             -472.768       -8.3470442e-07 -7.6433853e-06  3.9071617e-05 -3.3932345e-05 -12.287442      9.0897759e-12 -2.7723816e-11  9.216          9.216          9.216          782.7578     
        14   0             -472.768       -8.3467261e-07 -7.6433612e-06  3.907164e-05  -3.3932297e-05 -12.287442     -2.4201528e-11  3.5904615e-11  9.216          9.216          9.216          782.7578     
        15   0             -472.768       -8.3471539e-07 -7.6433857e-06  3.9071632e-05 -3.3932392e-05 -12.287442      3.2950437e-12  1.0771384e-10  9.216          9.216          9.216          782.7578     
        16   0             -472.768       -8.3474141e-07 -7.6434233e-06  3.9071555e-05 -3.3932356e-05 -12.287442     -2.7951061e-11  1.499813e-11   9.216          9.216          9.216          782.7578     
        17   0             -472.768       -8.347714e-07  -7.6433128e-06  3.9071365e-05 -3.3932366e-05 -12.287442      3.2950437e-11 -1.7270574e-11  9.216          9.216          9.216          782.7578     
        18   0             -472.768       -8.3478798e-07 -7.6433201e-06  3.9071368e-05 -3.3932412e-05 -12.287442     -1.4543641e-11  8.4080427e-11  9.216          9.216          9.216          782.7578     
        19   0             -472.768       -8.3478853e-07 -7.6434238e-06  3.9071372e-05 -3.3932313e-05 -12.287442     -2.8064683e-11  2.2269951e-11  9.216          9.216          9.216          782.7578     
        20   0             -472.768       -8.3483529e-07 -7.6433979e-06  3.907134e-05  -3.3932448e-05 -12.287442      5.0561878e-11  1.8179552e-11  9.216          9.216          9.216          782.7578     
Loop time of 0.038581 on 1 procs for 18 steps with 64 atoms

99.5% CPU use with 1 MPI tasks x no OpenMP threads

Minimization stats:
  Stopping criterion = force tolerance
  Energy initial, next-to-last, final = 
      -472.76799998355   -472.76799998393  -472.767999983931
  Force two-norm initial, final = 0.0001087236 2.9098633e-13
  Force max component initial, final = 2.4561048e-05 6.3282712e-14
  Final line search alpha, max atom move = 1 6.3282712e-14
  Iterations, force evaluations = 18 36

MPI task timing breakdown:
Section |  min time  |  avg time  |  max time  |%varavg| %total
---------------------------------------------------------------
Pair    | 0.038242   | 0.038242   | 0.038242   |   0.0 | 99.12
Neigh   | 0          | 0          | 0          |   0.0 |  0.00
Comm    | 8.8361e-05 | 8.8361e-05 | 8.8361e-05 |   0.0 |  0.23
Output  | 0.00015808 | 0.00015808 | 0.00015808 |   0.0 |  0.41
Modify  | 0          | 0          | 0          |   0.0 |  0.00
Other   |            | 9.252e-05  |            |       |  0.24

Nlocal:             64 ave          64 max          64 min
Histogram: 1 0 0 0 0 0 0 0 0 0
Nghost:            665 ave         665 max         665 min
Histogram: 1 0 0 0 0 0 0 0 0 0
Neighs:           2560 ave        2560 max        2560 min
Histogram: 1 0 0 0 0 0 0 0 0 0
FullNghs:         5120 ave        5120 max        5120 min
Histogram: 1 0 0 0 0 0 0 0 0 0

Total # of neighbors = 5120
Ave neighs/atom = 80
Neighbor list builds = 0
Dangerous builds = 0

# Obtain new stress tensor

variable tmp equal pe
variable e1 equal ${tmp}
variable e1 equal -472.767999983931
variable tmp equal press
variable p1 equal ${tmp}
variable p1 equal -8.34835291314556e-07
variable tmp equal pxx
variable pxx1 equal ${tmp}
variable pxx1 equal -7.64339793073969e-06
variable tmp equal pyy
variable pyy1 equal ${tmp}
variable pyy1 equal 3.90713403031158e-05
variable tmp equal pzz
variable pzz1 equal ${tmp}
variable pzz1 equal -3.39324482463198e-05
variable tmp equal pxy
variable pxy1 equal ${tmp}
variable pxy1 equal -12.2874421012277
variable tmp equal pxz
variable pxz1 equal ${tmp}
variable pxz1 equal 5.05618782215573e-11
variable tmp equal pyz
variable pyz1 equal ${tmp}
variable pyz1 equal 1.81795517201105e-11

# Compute elastic constant from pressure tensor

variable C1pos equal ${d1}
variable C1pos equal 7.64283436466258e-05
variable C2pos equal ${d2}
variable C2pos equal -0.000390719184128605
variable C3pos equal ${d3}
variable C3pos equal 0.000339318501390682
variable C4pos equal ${d4}
variable C4pos equal -2.18154620641326e-10
variable C5pos equal ${d5}
variable C5pos equal -4.32967808097382e-10
variable C6pos equal ${d6}
variable C6pos equal 122.874421012113

# Combine positive and negative

variable C1${dir} equal 0.5*(${C1neg}+${C1pos})
variable C16 equal 0.5*(${C1neg}+${C1pos})
variable C16 equal 0.5*(-7.64283734128123e-05+${C1pos})
variable C16 equal 0.5*(-7.64283734128123e-05+7.64283436466258e-05)
variable C2${dir} equal 0.5*(${C2neg}+${C2pos})
variable C26 equal 0.5*(${C2neg}+${C2pos})
variable C26 equal 0.5*(0.000390718716005148+${C2pos})
variable C26 equal 0.5*(0.000390718716005148+-0.000390719184128605)
variable C3${dir} equal 0.5*(${C3neg}+${C3pos})
variable C36 equal 0.5*(${C3neg}+${C3pos})
variable C36 equal 0.5*(-0.000339318155979199+${C3pos})
variable C36 equal 0.5*(-0.000339318155979199+0.000339318501390682)
variable C4${dir} equal 0.5*(${C4neg}+${C4pos})
variable C46 equal 0.5*(${C4neg}+${C4pos})
variable C46 equal 0.5*(-1.09077310320663e-10+${C4pos})
variable C46 equal 0.5*(-1.09077310320663e-10+-2.18154620641326e-10)
variable C5${dir} equal 0.5*(${C5neg}+${C5pos})
variable C56 equal 0.5*(${C5neg}+${C5pos})
variable C56 equal 0.5*(-9.76478577333431e-11+${C5pos})
variable C56 equal 0.5*(-9.76478577333431e-11+-4.32967808097382e-10)
variable C6${dir} equal 0.5*(${C6neg}+${C6pos})
variable C66 equal 0.5*(${C6neg}+${C6pos})
variable C66 equal 0.5*(122.8744210119+${C6pos})
variable C66 equal 0.5*(122.8744210119+122.874421012113)

# Delete dir to make sure it is not reused

variable dir delete

# Output final values

variable C11all equal ${C11}
variable C11all equal 480.693410225637
variable C22all equal ${C22}
variable C22all equal 480.693410225051
variable C33all equal ${C33}
variable C33all equal 480.693410225487

variable C12all equal 0.5*(${C12}+${C21})
variable C12all equal 0.5*(82.6256081277655+${C21})
variable C12all equal 0.5*(82.6256081277655+82.625608127751)
variable C13all equal 0.5*(${C13}+${C31})
variable C13all equal 0.5*(82.6256081275822+${C31})
variable C13all equal 0.5*(82.6256081275822+82.6256081277384)
variable C23all equal 0.5*(${C23}+${C32})
variable C23all equal 0.5*(82.6256081276327+${C32})
variable C23all equal 0.5*(82.6256081276327+82.6256081272067)

variable C44all equal ${C44}
variable C44all equal 122.874421012246
variable C55all equal ${C55}
variable C55all equal 122.874421012455
variable C66all equal ${C66}
variable C66all equal 122.874421012007

variable C14all equal 0.5*(${C14}+${C41})
variable C14all equal 0.5*(-2.08933420152609e-11+${C41})
variable C14all equal 0.5*(-2.08933420152609e-11+1.02263864315028e-10)
variable C15all equal 0.5*(${C15}+${C51})
variable C15all equal 0.5*(3.80323652454141e-10+${C51})
variable C15all equal 0.5*(3.80323652454141e-10+1.19869970483438e-10)
variable C16all equal 0.5*(${C16}+${C61})
variable C16all equal 0.5*(-1.4883093252282e-11+${C61})
variable C16all equal 0.5*(-1.4883093252282e-11+8.8624939691147e-11)

variable C24all equal 0.5*(${C24}+${C42})
variable C24all equal 0.5*(-3.43139038701484e-10+${C42})
variable C24all equal 0.5*(-3.43139038701484e-10+6.04468913083259e-10)
variable C25all equal 0.5*(${C25}+${C52})
variable C25all equal 0.5*(-1.90885292977987e-10+${C52})
variable C25all equal 0.5*(-1.90885292977987e-10+1.46573999224427e-10)
variable C26all equal 0.5*(${C26}+${C62})
variable C26all equal 0.5*(-2.34061728495143e-10+${C62})
variable C26all equal 0.5*(-2.34061728495143e-10+-6.64686848844755e-11)

variable C34all equal 0.5*(${C34}+${C43})
variable C34all equal 0.5*(-4.7948567650515e-10+${C43})
variable C34all equal 0.5*(-4.7948567650515e-10+2.9535749571626e-11)
variable C35all equal 0.5*(${C35}+${C53})
variable C35all equal 0.5*(-2.42015282516045e-10+${C53})
variable C35all equal 0.5*(-2.42015282516045e-10+1.10212202934471e-10)
variable C36all equal 0.5*(${C36}+${C63})
variable C36all equal 0.5*(1.72705741499418e-10+${C63})
variable C36all equal 0.5*(1.72705741499418e-10+-1.65887500485011e-10)

variable C45all equal 0.5*(${C45}+${C54})
variable C45all equal 0.5*(5.34024331778246e-10+${C54})
variable C45all equal 0.5*(5.34024331778246e-10+-3.73817032244771e-10)
variable C46all equal 0.5*(${C46}+${C64})
variable C46all equal 0.5*(-1.63615965480995e-10+${C64})
variable C46all equal 0.5*(-1.63615965480995e-10+1.73841963323556e-10)
variable C56all equal 0.5*(${C56}+${C65})
variable C56all equal 0.5*(-2.65307832915363e-10+${C65})
variable C56all equal 0.5*(-2.65307832915363e-10+1.17598975189465e-10)

# Average moduli for cubic crystals

variable C11cubic equal (${C11all}+${C22all}+${C33all})/3.0
variable C11cubic equal (480.693410225637+${C22all}+${C33all})/3.0
variable C11cubic equal (480.693410225637+480.693410225051+${C33all})/3.0
variable C11cubic equal (480.693410225637+480.693410225051+480.693410225487)/3.0
variable C12cubic equal (${C12all}+${C13all}+${C23all})/3.0
variable C12cubic equal (82.6256081277583+${C13all}+${C23all})/3.0
variable C12cubic equal (82.6256081277583+82.6256081276603+${C23all})/3.0
variable C12cubic equal (82.6256081277583+82.6256081276603+82.6256081274197)/3.0
variable C44cubic equal (${C44all}+${C55all}+${C66all})/3.0
variable C44cubic equal (122.874421012246+${C55all}+${C66all})/3.0
variable C44cubic equal (122.874421012246+122.874421012455+${C66all})/3.0
variable C44cubic equal (122.874421012246+122.874421012455+122.874421012007)/3.0

variable bulkmodulus equal (${C11cubic}+2*${C12cubic})/3.0
variable bulkmodulus equal (480.693410225392+2*${C12cubic})/3.0
variable bulkmodulus equal (480.693410225392+2*82.6256081276128)/3.0
variable shearmodulus1 equal ${C44cubic}
variable shearmodulus1 equal 122.874421012236
variable shearmodulus2 equal (${C11cubic}-${C12cubic})/2.0
variable shearmodulus2 equal (480.693410225392-${C12cubic})/2.0
variable shearmodulus2 equal (480.693410225392-82.6256081276128)/2.0
variable poissonratio equal 1.0/(1.0+${C11cubic}/${C12cubic})
variable poissonratio equal 1.0/(1.0+480.693410225392/${C12cubic})
variable poissonratio equal 1.0/(1.0+480.693410225392/82.6256081276128)

# For Stillinger-Weber silicon, the analytical results
# are known to be (E. R. Cowley, 1988):
#               C11 = 151.4 GPa
#               C12 = 76.4 GPa
#               C44 = 56.4 GPa

print "========================================="
=========================================
print "Components of the Elastic Constant Tensor"
Components of the Elastic Constant Tensor
print "========================================="
=========================================

print "Elastic Constant C11all = ${C11all} ${cunits}"
Elastic Constant C11all = 480.693410225637 GPa
print "Elastic Constant C22all = ${C22all} ${cunits}"
Elastic Constant C22all = 480.693410225051 GPa
print "Elastic Constant C33all = ${C33all} ${cunits}"
Elastic Constant C33all = 480.693410225487 GPa

print "Elastic Constant C12all = ${C12all} ${cunits}"
Elastic Constant C12all = 82.6256081277583 GPa
print "Elastic Constant C13all = ${C13all} ${cunits}"
Elastic Constant C13all = 82.6256081276603 GPa
print "Elastic Constant C23all = ${C23all} ${cunits}"
Elastic Constant C23all = 82.6256081274197 GPa

print "Elastic Constant C44all = ${C44all} ${cunits}"
Elastic Constant C44all = 122.874421012246 GPa
print "Elastic Constant C55all = ${C55all} ${cunits}"
Elastic Constant C55all = 122.874421012455 GPa
print "Elastic Constant C66all = ${C66all} ${cunits}"
Elastic Constant C66all = 122.874421012007 GPa

print "Elastic Constant C14all = ${C14all} ${cunits}"
Elastic Constant C14all = 4.06852611498836e-11 GPa
print "Elastic Constant C15all = ${C15all} ${cunits}"
Elastic Constant C15all = 2.5009681146879e-10 GPa
print "Elastic Constant C16all = ${C16all} ${cunits}"
Elastic Constant C16all = 3.68709232194325e-11 GPa

print "Elastic Constant C24all = ${C24all} ${cunits}"
Elastic Constant C24all = 1.30664937190887e-10 GPa
print "Elastic Constant C25all = ${C25all} ${cunits}"
Elastic Constant C25all = -2.215564687678e-11 GPa
print "Elastic Constant C26all = ${C26all} ${cunits}"
Elastic Constant C26all = -1.50265206689809e-10 GPa

print "Elastic Constant C34all = ${C34all} ${cunits}"
Elastic Constant C34all = -2.24974963466762e-10 GPa
print "Elastic Constant C35all = ${C35all} ${cunits}"
Elastic Constant C35all = -6.5901539790787e-11 GPa
print "Elastic Constant C36all = ${C36all} ${cunits}"
Elastic Constant C36all = 3.4091205072035e-12 GPa

print "Elastic Constant C45all = ${C45all} ${cunits}"
Elastic Constant C45all = 8.01036497667375e-11 GPa
print "Elastic Constant C46all = ${C46all} ${cunits}"
Elastic Constant C46all = 5.11299892128051e-12 GPa
print "Elastic Constant C56all = ${C56all} ${cunits}"
Elastic Constant C56all = -7.3854428862949e-11 GPa

print "========================================="
=========================================
print "Average properties for a cubic crystal"
Average properties for a cubic crystal
print "========================================="
=========================================

print "Bulk Modulus = ${bulkmodulus} ${cunits}"
Bulk Modulus = 215.314875493539 GPa
print "Shear Modulus 1 = ${shearmodulus1} ${cunits}"
Shear Modulus 1 = 122.874421012236 GPa
print "Shear Modulus 2 = ${shearmodulus2} ${cunits}"
Shear Modulus 2 = 199.03390104889 GPa
print "Poisson Ratio = ${poissonratio}"
Poisson Ratio = 0.146676404374182
variable length equal "lx"
print "Lattice constant (Angstroms) = ${length};"
Lattice constant (Angstroms) = 9.2160000424006;
Total wall time: 0:00:00
