LAMMPS (23 Jun 2022)
# Compute elastic constant tensor for a crystal
#
# Written by Aidan Thompson (Sandia, athomps@sandia.gov)
#
#  This script uses the following three include files.
#
#   init.mod      (must be modified for different crystal structures)
# 	       	  Define units, deformation parameters and initial
#		  configuration of the atoms and simulation cell.
#
#
#   potential.mod    (must be modified for different pair styles)
# 		     Define pair style and other attributes
#		     not stored in restart file
#
#
#   displace.mod    (displace.mod should not need to be modified)
# 		    Perform positive and negative box displacements
# 		    in direction ${dir} and size ${up}.
# 		    It uses the resultant changes
#		    in stress to compute one
# 		    row of the elastic stiffness tensor
#
#		    Inputs variables:
#		    	   dir = the Voigt deformation component
#		    		    (1,2,3,4,5,6)
#		    Global constants:
#       	    	   up = the deformation magnitude (strain units)
#       		   cfac = conversion from LAMMPS pressure units to
#               	   output units for elastic constants
#
#
#  To run this on a different system, it should only be necessary to
#  modify the files init.mod and potential.mod. In order to calculate
#  the elastic constants correctly, care must be taken to specify
#  the correct units in init.mod (units, cfac and cunits). It is also
#  important to verify that the minimization of energy w.r.t atom
#  positions in the deformed cell is fully converged.
#  One indication of this is that the elastic constants are insensitive
#  to the choice of the variable ${up} in init.mod. Another is to check
#  the final max and two-norm forces reported in the log file. If you know
#  that minimization is not required, you can set maxiter = 0.0 in
#  init.mod.
#

include init.mod
# NOTE: This script can be modified for different atomic structures,
# units, etc. See in.elastic for more info.
#

# Define the finite deformation size. Try several values of this
# variable to verify that results do not depend on it.
variable up equal 1.0e-6

# Define the amount of random jiggle for atoms
# This prevents atoms from staying on saddle points
variable atomjiggle equal 1.0e-5

# Uncomment one of these blocks, depending on what units
# you are using in LAMMPS and for output

# metal units, elastic constants in eV/A^3
#units		metal
#variable cfac equal 6.2414e-7
#variable cunits string eV/A^3

# metal units, elastic constants in GPa
units		metal
variable cfac equal 1.0e-4
variable cunits string GPa

# real units, elastic constants in GPa
#units		real
#variable cfac equal 1.01325e-4
#variable cunits string GPa

# Define minimization parameters
variable etol equal 0.0
variable ftol equal 1.0e-10
variable maxiter equal 500
variable maxeval equal 1000
variable dmax equal 1.0e-2

# generate the box and atom positions using a diamond lattice
# variable a equal 5.43

boundary	p p p

lattice         fcc 4.538
Lattice spacing in x,y,z = 4.538 4.538 4.538
region		simbox prism -1.0 1.0 -1.0 1.0 -1.0 1.0 0.0 0.0 0.0
create_box	2 simbox
Created triclinic box = (-4.538 -4.538 -4.538) to (4.538 4.538 4.538) with tilt (0 0 0)
  1 by 1 by 1 MPI processor grid
lattice 	fcc 4.538 orient x 1 0 0 orient y 0 1 0 orient z 0 0 1
Lattice spacing in x,y,z = 4.538 4.538 4.538
create_atoms	1 region simbox
Created 32 atoms
  using lattice units in triclinic box = (-4.538 -4.538 -4.538) to (4.538 4.538 4.538) with tilt (0 0 0)
  create_atoms CPU = 0.000 seconds
lattice 	fcc 4.538  origin 0 0 0.5 orient x 1 0 0 orient y 0 1 0 orient z 0 0 1
Lattice spacing in x,y,z = 4.538 4.538 4.538
create_atoms	2 region simbox
Created 32 atoms
  using lattice units in triclinic box = (-4.538 -4.538 -4.538) to (4.538 4.538 4.538) with tilt (0 0 0)
  create_atoms CPU = 0.000 seconds

# Need to set mass to something, just to satisfy LAMMPS
mass 1 47.867
mass 2 14.007

include potential.mod
# NOTE: This script can be modified for different pair styles
# See in.elastic for more info.

# Choose potential
pair_style	meam
pair_coeff * * library_HfN.meam Hf N HfN.meam Hf N
Reading MEAM library file library_HfN.meam with DATE: 2015-02-12

# Setup neighbor style
neighbor 1.0 nsq
neigh_modify once no every 1 delay 0 check yes

# Setup minimization style
min_style	     cg
min_modify	     dmax ${dmax} line quadratic
min_modify	     dmax 0.01 line quadratic

# Setup output
thermo		1
thermo_style custom step temp pe press pxx pyy pzz pxy pxz pyz lx ly lz vol
thermo_modify norm no

# Compute initial state
fix 3 all box/relax  aniso 0.0
minimize ${etol} ${ftol} ${maxiter} ${maxeval}
minimize 0 ${ftol} ${maxiter} ${maxeval}
minimize 0 1e-10 ${maxiter} ${maxeval}
minimize 0 1e-10 500 ${maxeval}
minimize 0 1e-10 500 1000
Neighbor list info ...
  update every 1 steps, delay 0 steps, check yes
  max neighbors/atom: 2000, page size: 100000
  master list distance cutoff = 8.38
  ghost atom cutoff = 8.38
  2 neighbor lists, perpetual/occasional/extra = 2 0 0
  (1) pair meam, perpetual
      attributes: full, newton on
      pair build: full/nsq
      stencil: none
      bin: none
  (2) pair meam, perpetual, half/full from (1)
      attributes: half, newton on
      pair build: halffull/newton
      stencil: none
      bin: none
Per MPI rank memory allocation (min/avg/max) = 10.24 | 10.24 | 10.24 Mbytes
   Step          Temp          PotEng         Press           Pxx            Pyy            Pzz            Pxy            Pxz            Pyz             Lx             Ly             Lz           Volume    
         0   0             -653.44        -0.004375024   -0.004375024   -0.004375024   -0.004375024    5.6725355e-20  8.5088032e-20  0              9.076          9.076          9.076          747.62439    
         1   0             -653.44        -4.8534509e-08 -4.8534509e-08 -4.8534509e-08 -4.8534509e-08  0             -2.1639006e-25 -8.6556022e-25  9.076          9.076          9.076          747.62439    
Loop time of 0.00284497 on 1 procs for 1 steps with 64 atoms

99.8% CPU use with 1 MPI tasks x no OpenMP threads

Minimization stats:
  Stopping criterion = force tolerance
  Energy initial, next-to-last, final = 
     -653.439999877045  -653.439999877045  -653.439999877036
  Force two-norm initial, final = 3.5360156e-06 3.9226934e-11
  Force max component initial, final = 2.0415196e-06 2.2647681e-11
  Final line search alpha, max atom move = 1 2.2647681e-11
  Iterations, force evaluations = 1 2

MPI task timing breakdown:
Section |  min time  |  avg time  |  max time  |%varavg| %total
---------------------------------------------------------------
Pair    | 0.002789   | 0.002789   | 0.002789   |   0.0 | 98.03
Neigh   | 0          | 0          | 0          |   0.0 |  0.00
Comm    | 1.3021e-05 | 1.3021e-05 | 1.3021e-05 |   0.0 |  0.46
Output  | 0          | 0          | 0          |   0.0 |  0.00
Modify  | 0          | 0          | 0          |   0.0 |  0.00
Other   |            | 4.298e-05  |            |       |  1.51

Nlocal:             64 ave          64 max          64 min
Histogram: 1 0 0 0 0 0 0 0 0 0
Nghost:           1267 ave        1267 max        1267 min
Histogram: 1 0 0 0 0 0 0 0 0 0
Neighs:           6464 ave        6464 max        6464 min
Histogram: 1 0 0 0 0 0 0 0 0 0
FullNghs:        12928 ave       12928 max       12928 min
Histogram: 1 0 0 0 0 0 0 0 0 0

Total # of neighbors = 12928
Ave neighs/atom = 202
Neighbor list builds = 0
Dangerous builds = 0

variable tmp equal pxx
variable pxx0 equal ${tmp}
variable pxx0 equal -4.85345085623053e-08
variable tmp equal pyy
variable pyy0 equal ${tmp}
variable pyy0 equal -4.85345085623053e-08
variable tmp equal pzz
variable pzz0 equal ${tmp}
variable pzz0 equal -4.85345085623053e-08
variable tmp equal pyz
variable pyz0 equal ${tmp}
variable pyz0 equal -8.6556022434703e-25
variable tmp equal pxz
variable pxz0 equal ${tmp}
variable pxz0 equal -2.16390056086757e-25
variable tmp equal pxy
variable pxy0 equal ${tmp}
variable pxy0 equal 0

variable tmp equal lx
variable lx0 equal ${tmp}
variable lx0 equal 9.07599999684796
variable tmp equal ly
variable ly0 equal ${tmp}
variable ly0 equal 9.07599999684796
variable tmp equal lz
variable lz0 equal ${tmp}
variable lz0 equal 9.07599999684796

# These formulas define the derivatives w.r.t. strain components
# Constants uses $, variables use v_
variable d1 equal -(v_pxx1-${pxx0})/(v_delta/v_len0)*${cfac}
variable d1 equal -(v_pxx1--4.85345085623053e-08)/(v_delta/v_len0)*${cfac}
variable d1 equal -(v_pxx1--4.85345085623053e-08)/(v_delta/v_len0)*0.0001
variable d2 equal -(v_pyy1-${pyy0})/(v_delta/v_len0)*${cfac}
variable d2 equal -(v_pyy1--4.85345085623053e-08)/(v_delta/v_len0)*${cfac}
variable d2 equal -(v_pyy1--4.85345085623053e-08)/(v_delta/v_len0)*0.0001
variable d3 equal -(v_pzz1-${pzz0})/(v_delta/v_len0)*${cfac}
variable d3 equal -(v_pzz1--4.85345085623053e-08)/(v_delta/v_len0)*${cfac}
variable d3 equal -(v_pzz1--4.85345085623053e-08)/(v_delta/v_len0)*0.0001
variable d4 equal -(v_pyz1-${pyz0})/(v_delta/v_len0)*${cfac}
variable d4 equal -(v_pyz1--8.6556022434703e-25)/(v_delta/v_len0)*${cfac}
variable d4 equal -(v_pyz1--8.6556022434703e-25)/(v_delta/v_len0)*0.0001
variable d5 equal -(v_pxz1-${pxz0})/(v_delta/v_len0)*${cfac}
variable d5 equal -(v_pxz1--2.16390056086757e-25)/(v_delta/v_len0)*${cfac}
variable d5 equal -(v_pxz1--2.16390056086757e-25)/(v_delta/v_len0)*0.0001
variable d6 equal -(v_pxy1-${pxy0})/(v_delta/v_len0)*${cfac}
variable d6 equal -(v_pxy1-0)/(v_delta/v_len0)*${cfac}
variable d6 equal -(v_pxy1-0)/(v_delta/v_len0)*0.0001

displace_atoms all random ${atomjiggle} ${atomjiggle} ${atomjiggle} 87287 units box
displace_atoms all random 1e-05 ${atomjiggle} ${atomjiggle} 87287 units box
displace_atoms all random 1e-05 1e-05 ${atomjiggle} 87287 units box
displace_atoms all random 1e-05 1e-05 1e-05 87287 units box
Displacing atoms ...

# Write restart
unfix 3
write_restart restart.equil
System init for write_restart ...

# uxx Perturbation

variable dir equal 1
include displace.mod
# NOTE: This script should not need to be
# modified. See in.elastic for more info.
#
# Find which reference length to use

if "${dir} == 1" then    "variable len0 equal ${lx0}"
variable len0 equal ${lx0}
variable len0 equal 9.07599999684796
if "${dir} == 2" then    "variable len0 equal ${ly0}"
if "${dir} == 3" then    "variable len0 equal ${lz0}"
if "${dir} == 4" then    "variable len0 equal ${lz0}"
if "${dir} == 5" then    "variable len0 equal ${lz0}"
if "${dir} == 6" then    "variable len0 equal ${ly0}"

# Reset box and simulation parameters

clear
box tilt large
read_restart restart.equil
Reading restart file ...
  restart file = 23 Jun 2022, LAMMPS = 23 Jun 2022
  restoring atom style atomic from restart
  triclinic box = (-4.538 -4.538 -4.538) to (4.538 4.538 4.538) with tilt (0 0 0)
  1 by 1 by 1 MPI processor grid
  pair style meam stores no restart info
  64 atoms
  read_restart CPU = 0.000 seconds
include potential.mod
# NOTE: This script can be modified for different pair styles
# See in.elastic for more info.

# Choose potential
pair_style	meam
pair_coeff * * library_HfN.meam Hf N HfN.meam Hf N
Reading MEAM library file library_HfN.meam with DATE: 2015-02-12

# Setup neighbor style
neighbor 1.0 nsq
neigh_modify once no every 1 delay 0 check yes

# Setup minimization style
min_style	     cg
min_modify	     dmax ${dmax} line quadratic
min_modify	     dmax 0.01 line quadratic

# Setup output
thermo		1
thermo_style custom step temp pe press pxx pyy pzz pxy pxz pyz lx ly lz vol
thermo_modify norm no

# Negative deformation

variable delta equal -${up}*${len0}
variable delta equal -1e-06*${len0}
variable delta equal -1e-06*9.07599999684796
variable deltaxy equal -${up}*xy
variable deltaxy equal -1e-06*xy
variable deltaxz equal -${up}*xz
variable deltaxz equal -1e-06*xz
variable deltayz equal -${up}*yz
variable deltayz equal -1e-06*yz
if "${dir} == 1" then    "change_box all x delta 0 ${delta} xy delta ${deltaxy} xz delta ${deltaxz} remap units box"
change_box all x delta 0 ${delta} xy delta ${deltaxy} xz delta ${deltaxz} remap units box
change_box all x delta 0 -9.07599999684796e-06 xy delta ${deltaxy} xz delta ${deltaxz} remap units box
change_box all x delta 0 -9.07599999684796e-06 xy delta -0 xz delta ${deltaxz} remap units box
change_box all x delta 0 -9.07599999684796e-06 xy delta -0 xz delta -0 remap units box
Changing box ...
  triclinic box = (-4.538 -4.538 -4.538) to (4.5379909 4.538 4.538) with tilt (0 0 0)
  triclinic box = (-4.538 -4.538 -4.538) to (4.5379909 4.538 4.538) with tilt (0 0 0)
  triclinic box = (-4.538 -4.538 -4.538) to (4.5379909 4.538 4.538) with tilt (0 0 0)
if "${dir} == 2" then    "change_box all y delta 0 ${delta} yz delta ${deltayz} remap units box"
if "${dir} == 3" then    "change_box all z delta 0 ${delta} remap units box"
if "${dir} == 4" then    "change_box all yz delta ${delta} remap units box"
if "${dir} == 5" then    "change_box all xz delta ${delta} remap units box"
if "${dir} == 6" then    "change_box all xy delta ${delta} remap units box"

# Relax atoms positions

minimize ${etol} ${ftol} ${maxiter} ${maxeval}
minimize 0 ${ftol} ${maxiter} ${maxeval}
minimize 0 1e-10 ${maxiter} ${maxeval}
minimize 0 1e-10 500 ${maxeval}
minimize 0 1e-10 500 1000
Neighbor list info ...
  update every 1 steps, delay 0 steps, check yes
  max neighbors/atom: 2000, page size: 100000
  master list distance cutoff = 8.38
  ghost atom cutoff = 8.38
  2 neighbor lists, perpetual/occasional/extra = 2 0 0
  (1) pair meam, perpetual
      attributes: full, newton on
      pair build: full/nsq
      stencil: none
      bin: none
  (2) pair meam, perpetual, half/full from (1)
      attributes: half, newton on
      pair build: halffull/newton
      stencil: none
      bin: none
Per MPI rank memory allocation (min/avg/max) = 10.2 | 10.2 | 10.2 Mbytes
   Step          Temp          PotEng         Press           Pxx            Pyy            Pzz            Pxy            Pxz            Pyz             Lx             Ly             Lz           Volume    
         1   0             -653.44         4.1993611      4.9899909      3.8040439      3.8040486      8.788331e-06   1.0254485e-05  6.6748372e-06  9.0759909      9.076          9.076          747.62364    
         2   0             -653.44         4.1992582      4.9898893      3.8039382      3.8039471      1.1748509e-06 -1.7838803e-06  1.4055406e-07  9.0759909      9.076          9.076          747.62364    
         3   0             -653.44         4.1991812      4.9898182      3.8038628      3.8038626      3.4578111e-06  1.0620174e-06 -8.3882106e-07  9.0759909      9.076          9.076          747.62364    
         4   0             -653.44         4.1991069      4.9897392      3.803791       3.8037905      1.629186e-06  -2.7364822e-08 -3.2047857e-07  9.0759909      9.076          9.076          747.62364    
         5   0             -653.44         4.1990753      4.9897086      3.8037595      3.8037579      1.1042457e-06 -7.8908923e-07 -3.812984e-07   9.0759909      9.076          9.076          747.62364    
         6   0             -653.44         4.1990514      4.9896854      3.8037353      3.8037334      8.0251579e-07 -1.109147e-06   1.1804108e-07  9.0759909      9.076          9.076          747.62364    
         7   0             -653.44         4.1990093      4.9896446      3.8036926      3.8036906      8.3352028e-07 -1.9026083e-06 -2.1775329e-07  9.0759909      9.076          9.076          747.62364    
         8   0             -653.44         4.1988861      4.9895262      3.8035676      3.8035645      2.7193626e-06 -3.8439593e-06 -1.5305397e-06  9.0759909      9.076          9.076          747.62364    
         9   0             -653.44         4.198385       4.9890492      3.8030548      3.8030509      8.631064e-06  -1.231935e-05  -2.8309004e-06  9.0759909      9.076          9.076          747.62364    
        10   0             -653.44         3.7990191      4.6143538      3.3909596      3.391744       0.0048563963  -0.0057298348  -0.00063187244  9.0759909      9.076          9.076          747.62364    
        11   0             -653.44013     -62.869762     -57.883057     -65.438142     -65.288086      0.81837304    -0.9397161     -0.11779998     9.0759909      9.076          9.076          747.62364    
        12   0             -653.44049     -243.74222     -227.46085     -252.17157     -251.59424      3.0374407     -3.458312      -0.45820499     9.0759909      9.076          9.076          747.62364    
        13   0             -653.44106     -538.73698     -504.14487     -556.67492     -555.39117      6.6817116     -7.5527109     -1.0528066      9.0759909      9.076          9.076          747.62364    
        14   0             -653.44183     -947.74042     -887.98309     -978.7529      -976.48526      11.774667     -13.22329      -1.9367152      9.0759909      9.076          9.076          747.62364    
        15   0             -653.4428      -1471.0675     -1379.4719     -1518.6347     -1515.096       18.348475     -20.478357     -3.1654213      9.0759909      9.076          9.076          747.62364    
        16   0             -653.44407     -2111.643      -1981.547      -2179.1787     -2174.2032      26.461096     -29.316613     -4.8958442      9.0759909      9.076          9.076          747.62364    
        17   0             -653.4465      -2895.3171     -2718.0787     -2987.0663     -2980.8062      36.341957     -39.665177     -7.828246       9.0759909      9.076          9.076          747.62364    
        18   0             -653.44929     -3073.6499     -2880.4344     -3173.7725     -3166.7429      37.024139     -40.762892     -5.7082091      9.0759909      9.076          9.076          747.62364    
        19   0             -653.45689     -3965.7294     -3704.5552     -4119.551      -4073.082       31.352261     -56.488368     -1.4676723      9.0759909      9.076          9.076          747.62364    
        20   0             -653.4637      -4970.5033     -4623.3572     -5166.9213     -5121.2315      34.805625     -67.429143     -8.366598       9.0759909      9.076          9.076          747.62364    
        21   0             -653.46925     -6120.8072     -5691.1785     -6371.4166     -6299.8264      38.398365     -80.429767     -10.896981      9.0759909      9.076          9.076          747.62364    
        22   0             -653.47652     -7514.6596     -6975.7591     -7831.101      -7737.1186      45.36415      -93.700122     -12.444976      9.0759909      9.076          9.076          747.62364    
        23   0             -653.47915     -7974.0308     -7390.4991     -8310.6847     -8220.9085      46.424761     -96.819126     -11.017743      9.0759909      9.076          9.076          747.62364    
        24   0             -653.48593     -10080.029     -9331.4812     -10530.242     -10378.365      53.390758     -112.94248     -10.007329      9.0759909      9.076          9.076          747.62364    
        25   0             -653.49687     -12523.25      -11585.946     -13086.316     -12897.489      64.264255     -84.511651     -15.397735      9.0759909      9.076          9.076          747.62364    
        26   0             -653.50242     -13378.146     -12373.968     -13970.861     -13789.609      67.027546     -63.866519     -26.829777      9.0759909      9.076          9.076          747.62364    
        27   0             -653.50631     -14736.295     -13628.179     -15394.998     -15185.709      64.952244     -2.6142586     -32.304567      9.0759909      9.076          9.076          747.62364    
        28   0             -653.5174      -17552.568     -16219.95      -18347.271     -18090.482      12.75829       299.2471      -33.016258      9.0759909      9.076          9.076          747.62364    
        29   0             -653.52134     -18106.178     -16718.552     -18926.748     -18673.233     -9.0663844      401.44203     -27.348421      9.0759909      9.076          9.076          747.62364    
        30   0             -653.52745     -20239.698     -18680.332     -21171.103     -20867.659     -131.00634      913.31776     -16.558699      9.0759909      9.076          9.076          747.62364    
        31   0             -653.53616     -22387.743     -20662.406     -23410.878     -23089.947     -325.535        1688.6095     -23.018104      9.0759909      9.076          9.076          747.62364    
        32   0             -653.54653     -23595.272     -21772.489     -24652.157     -24361.171     -521.32174      2518.5315     -51.066671      9.0759909      9.076          9.076          747.62364    
        33   0             -653.55749     -24510.864     -22600.444     -25603.24      -25328.909     -787.20183      3844.0423     -74.410988      9.0759909      9.076          9.076          747.62364    
        34   0             -653.57347     -24981.67      -22982.402     -26103.273     -25859.336     -1067.068       5496.0677     -96.333515      9.0759909      9.076          9.076          747.62364    
        35   0             -653.59818     -25006.962     -22907.956     -26166.777     -25946.153     -1354.7853      7385.2605     -121.95687      9.0759909      9.076          9.076          747.62364    
        36   0             -653.6325      -24529.62      -22313.573     -25762.262     -25513.025     -1632.8427      9236.8059     -147.02004      9.0759909      9.076          9.076          747.62364    
        37   0             -653.67569     -23501.952     -21140.249     -24882.904     -24482.702     -1886.4604      10677.443     -163.75696      9.0759909      9.076          9.076          747.62364    
        38   0             -653.72476     -21873.816     -19318.437     -23538.65      -22764.36      -2104.7127      11284.442     -162.83464      9.0759909      9.076          9.076          747.62364    
        39   0             -653.77396     -19577.362     -16751.539     -21742.272     -20238.275     -2280.5158      10646.167     -134.18138      9.0759909      9.076          9.076          747.62364    
        40   0             -653.81275     -16790.03      -13623.122     -19676.557     -17070.411     -2408.4408      8742.0834     -74.322079      9.0759909      9.076          9.076          747.62364    
        41   0             -653.83675     -14851.223     -11478.158     -18207.174     -14868.338     -2567.9543      7407.5297     -27.877605      9.0759909      9.076          9.076          747.62364    
        42   0             -653.85843     -14140.478     -10772.764     -17491.813     -14156.858     -2911.3771      7586.1641     -18.938754      9.0759909      9.076          9.076          747.62364    
        43   0             -653.87775     -13036.162     -9616.5198     -16521.242     -12970.723     -3303.5973      7041.5799      21.649445      9.0759909      9.076          9.076          747.62364    
        44   0             -653.89742     -12776.821     -9428.4285     -16062.91      -12839.124     -3919.3165      7372.5482      39.225283      9.0759909      9.076          9.076          747.62364    
        45   0             -653.91339     -11488.931     -8072.1216     -14887.262     -11507.409     -4087.5253      6229.3296      126.18543      9.0759909      9.076          9.076          747.62364    
        46   0             -653.93029     -11803.59      -8504.7299     -14774.26      -12131.78      -4585.0138      7042.7737      119.21314      9.0759909      9.076          9.076          747.62364    
        47   0             -653.94454     -10530.656     -7186.4911     -13437.877     -10967.601     -4214.1512      6064.6255      215.70857      9.0759909      9.076          9.076          747.62364    
        48   0             -653.96244     -11526.85      -8302.6417     -13859.479     -12418.429     -4912.6172      7783.3203      143.0119       9.0759909      9.076          9.076          747.62364    
        49   0             -653.97993     -9966.4366     -6662.2824     -12157.756     -11079.272     -4016.473       7208.8091      232.41281      9.0759909      9.076          9.076          747.62364    
        50   0             -654.00676     -10539.458     -7215.6786     -12498.074     -11904.622     -4856.3952      9351.7044      157.50191      9.0759909      9.076          9.076          747.62364    
        51   0             -654.03813     -10760.628     -7356.1744     -12710.121     -12215.587     -5787.0222      11614.879      102.93795      9.0759909      9.076          9.076          747.62364    
        52   0             -654.07839     -9925.2537     -6373.9041     -11975.604     -11426.253     -6258.1647      13358.122      91.61188       9.0759909      9.076          9.076          747.62364    
        53   0             -654.12672     -8622.6037     -4881.2261     -10867.719     -10118.866     -6772.6181      14789.866      83.546421      9.0759909      9.076          9.076          747.62364    
        54   0             -654.18164     -6950.2751     -2967.0992     -9522.3782     -8361.3479     -7502.7777      15715.677      67.025588      9.0759909      9.076          9.076          747.62364    
        55   0             -654.24382     -4524.2147     -202.64493     -7632.7888     -5737.2104     -8411.0291      15772.071      47.274599      9.0759909      9.076          9.076          747.62364    
        56   0             -654.3005      -2000.3951      2662.1813     -5623.6477     -3039.7188     -9232.807       15428.26       31.472367      9.0759909      9.076          9.076          747.62364    
        57   0             -654.35221      207.02338      5143.6396     -3733.2155     -789.3539      -9757.472       15296.627      32.739531      9.0759909      9.076          9.076          747.62364    
        58   0             -654.40369      2514.126       7696.5844     -1631.064       1476.8576     -9845.8259      15044.643      74.456792      9.0759909      9.076          9.076          747.62364    
        59   0             -654.45359      5311.13        10746.423      982.13866      4204.8286     -9290.4301      14176.554      188.19489      9.0759909      9.076          9.076          747.62364    
        60   0             -654.49203      8448.7033      14121.124      3918.5486      7306.4374     -8054.9066      12518.772      376.09587      9.0759909      9.076          9.076          747.62364    
        61   0             -654.51778      10674.219      16454.212      5983.5091      9584.9349     -7023.6612      11171.554      502.8705       9.0759909      9.076          9.076          747.62364    
        62   0             -654.54446      11045.65       16734.763      6302.6805      10099.506     -7105.8382      11282.789      441.63059      9.0759909      9.076          9.076          747.62364    
        63   0             -654.56517      13052.257      18716.123      8277.2089      12163.438     -5682.8174      9679.5369      582.47316      9.0759909      9.076          9.076          747.62364    
        64   0             -654.57991      11504.58       17017.616      6819.8813      10676.243     -6670.6027      10977.747      404.95365      9.0759909      9.076          9.076          747.62364    
        65   0             -654.59936      12887.629      18364.992      8241.9094      12055.987     -5409.9798      9556.4337      482.7516       9.0759909      9.076          9.076          747.62364    
        66   0             -654.61567      10601.591      15997.444      6068.2986      9739.0295     -6690.6792      10937.425      303.87042      9.0759909      9.076          9.076          747.62364    
        67   0             -654.63542      11813.479      17237.58       7337.4511      10865.406     -5517.2796      9356.7104      401.30395      9.0759909      9.076          9.076          747.62364    
        68   0             -654.65245      11371.086      16886.02       6922.5617      10304.677     -5751.177       9119.2153      394.07709      9.0759909      9.076          9.076          747.62364    
        69   0             -654.6674       12062.113      17626.476      7605.0814      10954.783     -5347.8186      8021.965       416.1904       9.0759909      9.076          9.076          747.62364    
        70   0             -654.68878      11632.456      17252.087      7195.348       10449.933     -5958.0827      7882.0163      413.93548      9.0759909      9.076          9.076          747.62364    
        71   0             -654.70056      10817.922      16503.491      6475.7117      9474.562      -6854.6139      8369.2285      425.65412      9.0759909      9.076          9.076          747.62364    
        72   0             -654.72021      10939.124      16668.334      6611.6721      9537.3673     -7479.7509      8106.0734      455.18608      9.0759909      9.076          9.076          747.62364    
        73   0             -654.74822      12538.425      18216.281      8145.6898      11253.302     -7449.4625      6672.8343      559.22842      9.0759909      9.076          9.076          747.62364    
        74   0             -654.77346      13450.008      19138.92       9095.4662      12115.639     -7853.4305      5908.4064      657.2957       9.0759909      9.076          9.076          747.62364    
        75   0             -654.80392      13654.241      19413.182      9441.279       12108.263     -8673.6259      5943.1019      711.97491      9.0759909      9.076          9.076          747.62364    
        76   0             -654.83423      14954.271      20678.211      11018.864      13165.737     -8388.8374      5275.6603      867.00398      9.0759909      9.076          9.076          747.62364    
        77   0             -654.86563      16338.758      22023.552      12833.938      14158.783     -7738.4134      4728.3905      989.24755      9.0759909      9.076          9.076          747.62364    
        78   0             -654.90225      17948.528      23624.103      15105.786      15115.694     -6524.4381      4283.1726      1053.5536      9.0759909      9.076          9.076          747.62364    
        79   0             -654.94341      18924.935      24592.683      16707.369      15474.752     -5476.3709      4161.6987      965.42351      9.0759909      9.076          9.076          747.62364    
        80   0             -654.9779       19989.036      25642.226      18158.91       16165.97      -4009.6229      3667.5023      947.10703      9.0759909      9.076          9.076          747.62364    
        81   0             -655.00973      20042.566      25663.831      18485.76       15978.106     -3154.0542      3900.492       853.3148       9.0759909      9.076          9.076          747.62364    
        82   0             -655.04249      20698.07       26315.324      19345.856      16433.029     -1878.8641      3733.8672      835.34063      9.0759909      9.076          9.076          747.62364    
        83   0             -655.07752      21313.372      26941.535      20152.063      16846.518     -845.11328      3732.8933      818.85206      9.0759909      9.076          9.076          747.62364    
        84   0             -655.11488      22093.277      27760.287      21143.044      17376.502     -189.0126       3786.9509      801.27655      9.0759909      9.076          9.076          747.62364    
        85   0             -655.15304      23151.445      28900.448      22458.078      18095.81      -80.628867      3833.5768      790.9193       9.0759909      9.076          9.076          747.62364    
        86   0             -655.18957      24471.56       30356.761      24101.802      18956.118     -677.23054      3883.7126      789.15431      9.0759909      9.076          9.076          747.62364    
        87   0             -655.2231       25982.415      32057.085      26007.043      19883.117     -1947.1232      3938.3294      796.17688      9.0759909      9.076          9.076          747.62364    
        88   0             -655.24961      26894.031      33081.901      27179.073      20421.117     -2803.445       3949.8717      806.26128      9.0759909      9.076          9.076          747.62364    
        89   0             -655.27532      27298.292      33510.538      27695.272      20689.067     -2938.445       3864.2386      829.32898      9.0759909      9.076          9.076          747.62364    
        90   0             -655.30216      27684.513      33941.985      28162.998      20948.556     -2995.449       3727.5923      893.74702      9.0759909      9.076          9.076          747.62364    
        91   0             -655.33328      28038.678      34386.434      28560.531      21169.069     -2902.9354      3523.7258      1088.8725      9.0759909      9.076          9.076          747.62364    
        92   0             -655.37526      28570.026      35119.335      29086.196      21504.547     -2646.3806      3163.2724      1458.0154      9.0759909      9.076          9.076          747.62364    
        93   0             -655.41815      29236.52       36047.173      29676.667      21985.721     -2234.6956      2771.1422      1807.1349      9.0759909      9.076          9.076          747.62364    
        94   0             -655.46694      30279.395      37399.538      30574.357      22864.29      -1784.05        2380.2435      2124.6336      9.0759909      9.076          9.076          747.62364    
        95   0             -655.52385      31838.423      39296.424      31897.45       24321.394     -1367.7582      2143.9607      2411.9001      9.0759909      9.076          9.076          747.62364    
        96   0             -655.58814      34082.475      41881.649      33785.208      26580.568     -1100.285       2275.804       2680.3162      9.0759909      9.076          9.076          747.62364    
        97   0             -655.65463      37184.563      45292.721      36381.962      29879.005     -1163.3277      2957.6694      2895.3166      9.0759909      9.076          9.076          747.62364    
        98   0             -655.7077       40685.95       49005.567      39326.752      33725.529     -1669.9613      3878.6887      2981.8065      9.0759909      9.076          9.076          747.62364    
        99   0             -655.74503      43856.881      52289.385      42059.525      37221.734     -2418.8682      4224.9258      2919.9252      9.0759909      9.076          9.076          747.62364    
       100   0             -655.77852      45218.203      53719.227      43367.715      38567.668     -2691.814       3327.7081      2790.9319      9.0759909      9.076          9.076          747.62364    
       101   0             -655.81083      45643.899      54166.711      43923.447      38841.538     -2603.945       2761.9601      2745.9289      9.0759909      9.076          9.076          747.62364    
       102   0             -655.84155      46509.621      54946.032      44766.326      39816.506     -2967.6426      2811.9141      2687.3011      9.0759909      9.076          9.076          747.62364    
       103   0             -655.87261      44555.216      53096.584      43219.518      37349.547     -1873.1281      1978.774       2636.3072      9.0759909      9.076          9.076          747.62364    
       104   0             -655.90669      47052.412      55385.267      45380.034      40391.935     -2672.3474      2520.3833      2555.5099      9.0759909      9.076          9.076          747.62364    
       105   0             -655.93424      46592.457      54951.947      44970.748      39854.677     -2086.1265      2424.7926      2451.8862      9.0759909      9.076          9.076          747.62364    
       106   0             -655.95964      47423.572      55787.769      45726.352      40756.595     -1558.4724      2210.8345      2368.0209      9.0759909      9.076          9.076          747.62364    
       107   0             -655.98531      47705.259      56072.168      45999.045      41044.564     -1031.9825      2066.7499      2250.7055      9.0759909      9.076          9.076          747.62364    
       108   0             -656.01207      48698.961      57057.586      47000.12       42039.177     -545.87343      1743.7232      2152.5144      9.0759909      9.076          9.076          747.62364    
       109   0             -656.04008      49438.23       57787.696      47847.253      42679.742     -290.76348      1511.6389      2027.6938      9.0759909      9.076          9.076          747.62364    
       110   0             -656.06972      50603.878      58948.321      49189.239      43674.074     -253.74224      1230.2801      1918.3281      9.0759909      9.076          9.076          747.62364    
       111   0             -656.10314      51610.606      59971.212      50477.719      44382.888     -523.33419      1168.153       1798.9919      9.0759909      9.076          9.076          747.62364    
       112   0             -656.14101      53002.971      61423.207      52100.321      45485.384     -681.9925       1174.594       1730.6107      9.0759909      9.076          9.076          747.62364    
       113   0             -656.18025      53257.881      61752.878      52466.731      45554.034     -1146.4976      1394.0206      1605.8253      9.0759909      9.076          9.076          747.62364    
       114   0             -656.21988      55575.569      64194.234      54669.08       47863.394     -946.46812      409.42687      1616.038       9.0759909      9.076          9.076          747.62364    
       115   0             -656.26673      55405.038      64126.702      54384.375      47704.037     -1852.9987      233.61791      1459.5472      9.0759909      9.076          9.076          747.62364    
       116   0             -656.31335      57668.806      66550.124      56396.282      50060.013     -1728.4196     -965.13586      1458.2535      9.0759909      9.076          9.076          747.62364    
       117   0             -656.35963      59491.334      68493.127      57890.189      52090.686     -1930.2228     -1386.1339      1458.7137      9.0759909      9.076          9.076          747.62364    
       118   0             -656.40572      61636.851      70731.063      59590.851      54588.639     -2157.0659     -1066.2235      1509.4865      9.0759909      9.076          9.076          747.62364    
       119   0             -656.44736      64150.618      73294.197      61561.893      57595.763     -2279.9894     -228.34477      1641.9151      9.0759909      9.076          9.076          747.62364    
       120   0             -656.48505      65830.672      74971.194      62865.017      59655.806     -2363.2998      164.30549      1794.5998      9.0759909      9.076          9.076          747.62364    
       121   0             -656.52923      67235.981      76328.021      64109.737      61270.184     -2101.9123     -439.81784      1908.8         9.0759909      9.076          9.076          747.62364    
       122   0             -656.58127      68566.344      77527.205      65351.507      62820.32      -1780.6905     -1023.9444      1946.1529      9.0759909      9.076          9.076          747.62364    
       123   0             -656.63907      70691.544      79500.984      67576.277      64997.371     -623.32752     -2417.0215      1939.8513      9.0759909      9.076          9.076          747.62364    
       124   0             -656.69275      71611.619      80249.718      68558.341      66026.797     -387.60647     -2993.6939      1895.8034      9.0759909      9.076          9.076          747.62364    
       125   0             -656.74343      73766.9        82266.822      70808.699      68225.18       553.01705     -3953.7937      1880.4319      9.0759909      9.076          9.076          747.62364    
       126   0             -656.79179      74972.375      83321.606      71960.099      69635.421      467.43838     -4039.0423      1898.6151      9.0759909      9.076          9.076          747.62364    
       127   0             -656.83897      77050.627      85267.749      73907.822      71976.311      739.38451     -3882.9311      1985.4451      9.0759909      9.076          9.076          747.62364    
       128   0             -656.88199      78300.412      86375.638      74911.346      73614.25       606.63904     -3358.0536      2132.4535      9.0759909      9.076          9.076          747.62364    
       129   0             -656.91868      79796.679      87729.718      76279.846      75380.472      1305.3989     -3560.2148      2225.6228      9.0759909      9.076          9.076          747.62364    
       130   0             -656.95374      80340.362      88083.73       76653.226      76284.13       1167.7786     -3503.5013      2334.6848      9.0759909      9.076          9.076          747.62364    
       131   0             -656.9893       82532.432      90138.054      78811.166      78648.075      2224.2096     -4059.643       2374.088       9.0759909      9.076          9.076          747.62364    
       132   0             -657.02739      81804.452      89116.128      77812.273      78484.955      953.42156     -3851.3087      2523.74        9.0759909      9.076          9.076          747.62364    
       133   0             -657.06667      86070.218      93307.263      82102.731      82800.661      2988.5507     -4825.9929      2451.726       9.0759909      9.076          9.076          747.62364    
       134   0             -657.10372      85542.14       92492.201      81346.556      82787.661      1950.8841     -4879.5783      2636.8391      9.0759909      9.076          9.076          747.62364    
       135   0             -657.1366       87616.932      94455.621      83378.459      85016.715      2197.3106     -5359.7959      2539.4764      9.0759909      9.076          9.076          747.62364    
       136   0             -657.16885      86478.995      92989.737      82199.779      84247.469      852.831       -5398.6084      2604.3464      9.0759909      9.076          9.076          747.62364    
       137   0             -657.20344      91219.919      97778.477      87064.113      88817.166      1317.6592     -6343.7894      2252.6582      9.0759909      9.076          9.076          747.62364    
       138   0             -657.23742      90745.164      96974.917      86619.868      88640.707      508.87938     -5960.3939      2202.4886      9.0759909      9.076          9.076          747.62364    
       139   0             -657.2662       92148.675      98236.411      87881.351      90328.264      115.42735     -6721.2834      1839.6051      9.0759909      9.076          9.076          747.62364    
       140   0             -657.2898       91108.327      96989.715      87014.283      89320.983      2028.722      -5411.6062      1760.2309      9.0759909      9.076          9.076          747.62364    
       141   0             -657.31615      94799.678      100618.98      90533.914      93246.143      81.479054     -6477.8448      1473.1908      9.0759909      9.076          9.076          747.62364    
       142   0             -657.34065      94148.886      99778.324      90082.311      92586.024      1018.4407     -5930.9485      1269.1671      9.0759909      9.076          9.076          747.62364    
       143   0             -657.36417      96188.605      101712.45      92230.348      94623.022      1552.7979     -5680.9739      966.85264      9.0759909      9.076          9.076          747.62364    
       144   0             -657.38758      95531.801      100883.87      91805.412      93906.117      1515.7964     -5374.9295      871.17735      9.0759909      9.076          9.076          747.62364    
       145   0             -657.41197      98720.929      103981.48      95212.09       96969.216      2053.9571     -5131.7737      466.31599      9.0759909      9.076          9.076          747.62364    
       146   0             -657.43676      97691.833      102756.92      94555.615      95762.966      2316.2233     -4660.0897      374.41616      9.0759909      9.076          9.076          747.62364    
       147   0             -657.4625       101021.38      105952.41      98308.045      98803.68       2735.6334     -4625.3186     -76.72371       9.0759909      9.076          9.076          747.62364    
       148   0             -657.48962      99422.006      104122.47      97320.004      96823.54       3514.9651     -4240.1747     -132.64283      9.0759909      9.076          9.076          747.62364    
       149   0             -657.51943      104561.56      109059.99      103166.02      101458.66      4017.9957     -4462.6275     -645.84424      9.0759909      9.076          9.076          747.62364    
       150   0             -657.54646      103257.32      107619.14      102398.11      99754.711      4626.9773     -4490.3858     -595.45967      9.0759909      9.076          9.076          747.62364    
       151   0             -657.57001      103601.51      107839.04      102990.38      99975.102      5245.543      -4282.5738     -583.70027      9.0759909      9.076          9.076          747.62364    
       152   0             -657.59344      104732.05      108876.75      104371.24      100948.15      4844.9936     -4683.7797     -682.28929      9.0759909      9.076          9.076          747.62364    
       153   0             -657.61635      105275.62      109278.46      105190.76      101357.63      6130.0137     -4039.6168     -642.49199      9.0759909      9.076          9.076          747.62364    
       154   0             -657.63918      105518.38      109492.58      105592.22      101470.34      5859.2738     -4704.1423     -620.85915      9.0759909      9.076          9.076          747.62364    
       155   0             -657.66084      107128.32      110967.75      107396.46      103020.77      6639.8472     -3910.0115     -640.32728      9.0759909      9.076          9.076          747.62364    
       156   0             -657.68203      106482.23      110384.09      106773.61      102289         5906.4495     -5039.0635     -462.14562      9.0759909      9.076          9.076          747.62364    
       157   0             -657.70539      108311.5       112083.16      108765.1       104086.24      6614.2997     -4186.7305     -451.51811      9.0759909      9.076          9.076          747.62364    
       158   0             -657.72904      108684.04      112471.26      109148.59      104432.28      6101.6792     -4585.6236     -345.75313      9.0759909      9.076          9.076          747.62364    
       159   0             -657.75493      110387.43      114074.87      110956.77      106130.65      6313.8563     -3986.6003     -301.53042      9.0759909      9.076          9.076          747.62364    
       160   0             -657.78129      110629.19      114374.22      111163.86      106349.49      5235.7625     -4589.163      -213.75815      9.0759909      9.076          9.076          747.62364    
       161   0             -657.80909      112663.77      116255.9       113411.96      108323.44      5534.3732     -3898.78       -269.20309      9.0759909      9.076          9.076          747.62364    
       162   0             -657.83398      113355.76      116926.01      114263.43      108877.84      5036.8073     -4234.2922     -239.45838      9.0759909      9.076          9.076          747.62364    
       163   0             -657.8605       115953.12      119251.83      117424.7       111182.84      6243.0708     -3393.3078     -333.22223      9.0759909      9.076          9.076          747.62364    
       164   0             -657.88197      115584.84      118978.66      117110.15      110665.72      5157.6135     -4353.8015     -106.52977      9.0759909      9.076          9.076          747.62364    
       165   0             -657.90882      118054.62      121178.77      120133.07      112852         6667.8685     -3351.0488      26.947917      9.0759909      9.076          9.076          747.62364    
       166   0             -657.93259      118023.12      121143.21      119978.96      112947.2       5738.0021     -3986.1117      433.23168      9.0759909      9.076          9.076          747.62364    
       167   0             -657.95515      119841.63      122739.55      122070.38      114714.97      7529.2707     -2701.2466      653.65106      9.0759909      9.076          9.076          747.62364    
       168   0             -657.97879      120212.61      123013.47      122274.6       115349.75      6751.5504     -3485.7694      1045.5064      9.0759909      9.076          9.076          747.62364    
       169   0             -658.00076      120378         123235.02      122294.91      115604.07      8274.1617     -2412.8716      1319.0936      9.0759909      9.076          9.076          747.62364    
       170   0             -658.02152      122379.34      124940.84      124306.56      117890.63      6623.7388     -4052.521       1844.7124      9.0759909      9.076          9.076          747.62364    
       171   0             -658.04572      122695.28      125280.8       124401.56      118403.47      7473.7282     -3248.8943      2224.2271      9.0759909      9.076          9.076          747.62364    
       172   0             -658.05195      121635.61      124491.53      123155.36      117259.94      9689.4506     -1490.9736      2198.7523      9.0759909      9.076          9.076          747.62364    
       173   0             -658.07874      122545.17      125448.83      123857.2       118329.48      10526.08      -1045.2273      2703.1775      9.0759909      9.076          9.076          747.62364    
       174   0             -658.08667      123377.13      126049.86      124697.33      119384.2       8443.1928     -2412.6106      2909.738       9.0759909      9.076          9.076          747.62364    
       175   0             -658.10838      123698.43      126526.78      124738.38      119830.13      8440.6423     -1570.5207      3242.2697      9.0759909      9.076          9.076          747.62364    
       176   0             -658.11973      123678.59      126864.69      124518.65      119652.43      11266.796     -148.60387      3362.3822      9.0759909      9.076          9.076          747.62364    
       177   0             -658.13543      124299.11      127604.79      124851.94      120440.61      12023.556     -121.38462      3650.6484      9.0759909      9.076          9.076          747.62364    
       178   0             -658.14947      124376.36      127481.38      124775.37      120872.33      9921.0013     -841.3875       3758.0442      9.0759909      9.076          9.076          747.62364    
       179   0             -658.1652       124502.54      127892.93      124693.46      120921.22      10058.236      321.03815      3919.3132      9.0759909      9.076          9.076          747.62364    
       180   0             -658.18069      125854.54      129347.88      125878.08      122337.65      10802.651     -399.25748      4175.0021      9.0759909      9.076          9.076          747.62364    
       181   0             -658.19751      125202.31      128893.78      124791.61      121921.55      10695.781      160.68089      4128.0317      9.0759909      9.076          9.076          747.62364    
       182   0             -658.21215      126295.5       130044.58      125906.72      122935.21      9516.0224      507.48305      4278.03        9.0759909      9.076          9.076          747.62364    
       183   0             -658.22932      125849.3       129878.98      124966.08      122702.84      10458.867      495.79202      4153.6496      9.0759909      9.076          9.076          747.62364    
       184   0             -658.24614      126438.6       130512.91      125404.52      123398.37      9412.6294      462.67205      4319.4354      9.0759909      9.076          9.076          747.62364    
       185   0             -658.26407      126562.61      130942.14      125259.77      123485.91      9815.8611      822.13474      4124.2437      9.0759909      9.076          9.076          747.62364    
       186   0             -658.2847       127370         131724.33      125967.79      124417.87      8720.7832      463.86242      4395.4213      9.0759909      9.076          9.076          747.62364    
       187   0             -658.30797      127492.21      132146.95      125821.66      124508.02      8586.6319      759.07803      4181.4942      9.0759909      9.076          9.076          747.62364    
       188   0             -658.33494      128444.39      133059.1       126757.42      125516.64      7634.565       270.52783      4378.9161      9.0759909      9.076          9.076          747.62364    
       189   0             -658.3624       128859.67      133782.8       126895.34      125900.87      7383.6734      817.89496      3985.632       9.0759909      9.076          9.076          747.62364    
       190   0             -658.38853      129601.2       134401.29      127600.5       126801.82      6401.144       393.43305      4394.8184      9.0759909      9.076          9.076          747.62364    
       191   0             -658.41434      130395.26      135423.23      128199.96      127562.59      6202.1395      641.84028      4162.8213      9.0759909      9.076          9.076          747.62364    
       192   0             -658.43996      131116.51      136142.39      128836.69      128370.44      5678.8245      406.31211      4414.3799      9.0759909      9.076          9.076          747.62364    
       193   0             -658.46684      132069.72      137339.81      129604.39      129264.95      5800.1769      799.36327      4130.4363      9.0759909      9.076          9.076          747.62364    
       194   0             -658.49499      132840.88      138048.79      130334.84      130139         5350.0458      436.2792       4609.7982      9.0759909      9.076          9.076          747.62364    
       195   0             -658.52287      133988.68      139529.91      131287.87      131148.25      5855.133       1181.4915      4135.0506      9.0759909      9.076          9.076          747.62364    
       196   0             -658.55091      134715.98      140200.73      131987.57      131959.64      5446.0278      896.53919      4633.0292      9.0759909      9.076          9.076          747.62364    
       197   0             -658.57869      136021.76      141817.26      133141.92      133106.11      5986.8376      1778.9273      4161.5362      9.0759909      9.076          9.076          747.62364    
       198   0             -658.60719      136787.27      142505.09      133883.11      133973.59      5530.4691      1346.2982      4819.2225      9.0759909      9.076          9.076          747.62364    
       199   0             -658.63614      138341.73      144425         135274.97      135325.23      6301.1688      2405.6415      4281.426       9.0759909      9.076          9.076          747.62364    
       200   0             -658.66702      139266.62      145304.46      136124.13      136371.26      6035.5982      1847.8974      5035.2885      9.0759909      9.076          9.076          747.62364    
       201   0             -658.69962      141079.07      147536.15      137735.65      137965.42      7157.5667      3040.3851      4526.8409      9.0759909      9.076          9.076          747.62364    
       202   0             -658.73416      142188.43      148588.59      138726.24      139250.44      7179.2152      2184.7414      5360.9528      9.0759909      9.076          9.076          747.62364    
       203   0             -658.7662       143864.53      150657.5       140209.51      140726.56      8247.2511      3245.8366      5038.6455      9.0759909      9.076          9.076          747.62364    
       204   0             -658.79624      145118.53      151917.39      141362.64      142075.57      8320.7302      2528.3106      5731.076       9.0759909      9.076          9.076          747.62364    
       205   0             -658.82645      146755.67      154114.9       142758.54      143393.57      8867.6107      3859.0998      5311.2529      9.0759909      9.076          9.076          747.62364    
       206   0             -658.85659      147991.83      155339.8       143868.62      144767.07      8001.7251      2348.8262      6372.9946      9.0759909      9.076          9.076          747.62364    
       207   0             -658.88681      149425.52      157454.4       144932.44      145889.73      8056.7719      3493.1958      6056.9865      9.0759909      9.076          9.076          747.62364    
       208   0             -658.91243      150393.03      158400.27      145644.56      147134.28      7341.2758      1983.6316      6830.2715      9.0759909      9.076          9.076          747.62364    
       209   0             -658.9351       151322.27      160031.25      146147.99      147787.57      7460.707       3455.7903      6378.8479      9.0759909      9.076          9.076          747.62364    
       210   0             -658.95555      152288.86      160965.58      146889.94      149011.06      7024.2687      2509.8534      6836.1051      9.0759909      9.076          9.076          747.62364    
       211   0             -658.97173      152633.12      161740.84      146857.31      149301.22      6809.1011      3008.9883      6786.8881      9.0759909      9.076          9.076          747.62364    
       212   0             -658.98564      153740.68      162570.32      147875.88      150775.83      6657.0756      2070.8616      6909.5231      9.0759909      9.076          9.076          747.62364    
       213   0             -659.0013       153865.3       163226.7       147606.46      150762.75      6450.5228      2746.0463      6703.83        9.0759909      9.076          9.076          747.62364    
       214   0             -659.01544      154614.19      163997.08      148154.83      151690.66      6223.3198      2520.0888      6798.2482      9.0759909      9.076          9.076          747.62364    
       215   0             -659.02804      154823.32      164770.42      147968.25      151731.28      6083.2114      2768.5686      6450.0147      9.0759909      9.076          9.076          747.62364    
       216   0             -659.04282      155825.08      165520.57      148910.96      153043.71      5786.2921      2667.2582      6682.5387      9.0759909      9.076          9.076          747.62364    
       217   0             -659.05604      156027.66      166096.04      148789.66      153197.28      5590.4053      2304.1891      6609.0155      9.0759909      9.076          9.076          747.62364    
       218   0             -659.06827      157207.37      167002.56      149950.33      154669.23      5351.4304      3285.5238      6683.2696      9.0759909      9.076          9.076          747.62364    
       219   0             -659.08185      157249.41      167456.12      149707.96      154584.14      5122.2952      2562.932       6381.3313      9.0759909      9.076          9.076          747.62364    
       220   0             -659.09641      158178.46      168285.95      150565.28      155684.16      4873.4747      3232.4616      6311.622       9.0759909      9.076          9.076          747.62364    
       221   0             -659.10908      158237.21      168593.14      150292.05      155826.44      4329.9917      2328.4519      6038.2049      9.0759909      9.076          9.076          747.62364    
       222   0             -659.12587      159538.53      169998.09      151606.54      157010.97      3827.861       2379.2021      6148.7294      9.0759909      9.076          9.076          747.62364    
       223   0             -659.1402       161344.6       171553.13      153646.07      158834.59      4282.2057      3506.0613      6106.411       9.0759909      9.076          9.076          747.62364    
       224   0             -659.15702      161735.62      172041.39      153855.26      159310.22      2522.9993      1816.1734      6364.2479      9.0759909      9.076          9.076          747.62364    
       225   0             -659.17074      163026.65      173902.31      155195.29      159982.35      1988.7024      2939.0665      5797.1769      9.0759909      9.076          9.076          747.62364    
       226   0             -659.18689      164624.17      175440.43      156890.02      161542.08      1494.4124      2578.6978      5994.0663      9.0759909      9.076          9.076          747.62364    
       227   0             -659.19598      165027.41      175190.85      157264.56      162626.82      1487.3344      1069.623       6616.2967      9.0759909      9.076          9.076          747.62364    
       228   0             -659.20595      164961.91      175187.3       157284.44      162414         1466.2677      2343.3214      5700.6302      9.0759909      9.076          9.076          747.62364    
       229   0             -659.22394      166059.27      176135.38      158661.81      163380.61      884.7163       2907.262       5566.0574      9.0759909      9.076          9.076          747.62364    
       230   0             -659.23433      167620.67      177349.61      160419.17      165093.23      527.51151      1285.875       6422.0316      9.0759909      9.076          9.076          747.62364    
       231   0             -659.24098      168455.64      178764.4       161281.02      165321.5       1039.1237      1561.282       5692.2153      9.0759909      9.076          9.076          747.62364    
       232   0             -659.2591       169676.21      180042.7       162397.8       166588.11      1179.3401      1205.1601      5712.4933      9.0759909      9.076          9.076          747.62364    
       233   0             -659.27175      169866.19      179211.74      163053.31      167333.51      486.70399      1046.8788      6810.2523      9.0759909      9.076          9.076          747.62364    
       234   0             -659.28257      169827.87      179031.65      163675.1       166776.86      1183.4154      2758.5722      6250.6364      9.0759909      9.076          9.076          747.62364    
       235   0             -659.30118      172254.39      181565.5       166613.38      168584.3       3243.2836      2536.2973      5490.1116      9.0759909      9.076          9.076          747.62364    
       236   0             -659.31401      174191.58      182972.7       168626.5       170975.54      2268.8594      317.94813      5815.4771      9.0759909      9.076          9.076          747.62364    
       237   0             -659.3259       175364.44      184579.91      169824.84      171688.59      1355.4019      677.1851       4447.3421      9.0759909      9.076          9.076          747.62364    
       238   0             -659.33802      175633.56      185465.29      170184.73      171250.66      3583.1556      3113.4604      3663.8403      9.0759909      9.076          9.076          747.62364    
       239   0             -659.35128      177469.06      186212.21      172764.42      173430.56      5602.9939      2418.5673      4167.8229      9.0759909      9.076          9.076          747.62364    
       240   0             -659.36192      179135.86      187067.05      175196.85      175143.68      3908.5157      933.2118       3732.4763      9.0759909      9.076          9.076          747.62364    
       241   0             -659.37082      180330.39      189062.96      176810.75      175117.45      2445.1401      1932.4059      1812.5441      9.0759909      9.076          9.076          747.62364    
       242   0             -659.38345      182125.1       191192.98      178710.3       176472.03      2622.3525      1451.9519      1393.4302      9.0759909      9.076          9.076          747.62364    
       243   0             -659.39081      183150.23      191228.56      179926.75      178295.38      3312.4098     -51.056872      2398.3092      9.0759909      9.076          9.076          747.62364    
       244   0             -659.39766      183851.83      191690.42      181045.53      178819.55      3775.2972      798.20193      1308.6832      9.0759909      9.076          9.076          747.62364    
       245   0             -659.40702      184489.21      192839.12      181856.8       178771.7       3722.9564      2717.6002      255.79124      9.0759909      9.076          9.076          747.62364    
       246   0             -659.41357      185613.19      193529.84      183097.6       180212.14      3537.1734      899.31471      949.74584      9.0759909      9.076          9.076          747.62364    
       247   0             -659.42062      186874.82      194878.99      184885.37      180860.1       2787.1393     -937.74784     -69.802422      9.0759909      9.076          9.076          747.62364    
       248   0             -659.4263       187135.35      195668.99      185509.26      180227.8       2434.5371      1033.5029     -1101.1045      9.0759909      9.076          9.076          747.62364    
       249   0             -659.43341      188013.31      196184.59      186809.13      181046.21      2482.8641      1857.7775     -1224.3716      9.0759909      9.076          9.076          747.62364    
       250   0             -659.44041      188777.34      196312.43      187699.67      182319.92      2819.906       1.2160445     -1278.2798      9.0759909      9.076          9.076          747.62364    
       251   0             -659.4474       189435.14      197261.5       188586.69      182457.24      2878.1498     -35.332703     -2643.3987      9.0759909      9.076          9.076          747.62364    
       252   0             -659.45653      190187.15      198213.97      189854.87      182492.62      2634.3327      1311.0592     -3359.8119      9.0759909      9.076          9.076          747.62364    
       253   0             -659.46495      191217.7       198335.55      191245.93      184071.62      2844.7276      286.29689     -2647.2886      9.0759909      9.076          9.076          747.62364    
       254   0             -659.47543      191835.59      198693.84      192258.79      184554.14      2884.3175     -34.600646     -3454.1809      9.0759909      9.076          9.076          747.62364    
       255   0             -659.47818      191983.56      199548.75      192481.38      183920.53      2638.1437      1212.3185     -4403.419       9.0759909      9.076          9.076          747.62364    
       256   0             -659.48587      194167.93      201739.47      194984         185780.31      2645.5646      915.23457     -4251.1067      9.0759909      9.076          9.076          747.62364    
       257   0             -659.49857      195600.72      202824.57      197070.58      186907         2661.1147      128.83943     -4813.3821      9.0759909      9.076          9.076          747.62364    
       258   0             -659.50417      195056.44      202048.66      196811.04      186309.62      2709.6198      511.10391     -5275.9718      9.0759909      9.076          9.076          747.62364    
       259   0             -659.50924      195619.27      201580.11      197776.07      187501.62      2813.4412     -61.266375     -4857.9289      9.0759909      9.076          9.076          747.62364    
       260   0             -659.52138      196463.56      202376.52      198957.84      188056.31      2625.4072      722.93513     -5336.0212      9.0759909      9.076          9.076          747.62364    
       261   0             -659.52684      197165.52      203802.25      199735.02      187959.29      2584.584       1106.4304     -6069.4308      9.0759909      9.076          9.076          747.62364    
       262   0             -659.53204      198817.08      205124.92      201476.71      189849.61      3031.4127     -478.70589     -5318.7823      9.0759909      9.076          9.076          747.62364    
       263   0             -659.54114      199907.8       205995.58      203066.35      190661.47      2885.1827     -1269.0489     -5983.9516      9.0759909      9.076          9.076          747.62364    
       264   0             -659.5464       199210.77      205519.27      202568.75      189544.28      2147.0532      1048.0472     -6840.547       9.0759909      9.076          9.076          747.62364    
       265   0             -659.55158      199611.91      205022.09      203186.84      190626.82      2113.6336      1069.9472     -6271.1192      9.0759909      9.076          9.076          747.62364    
       266   0             -659.56236      200778.26      206007.24      204508.34      191819.19      2437.457       310.51345     -6380.8092      9.0759909      9.076          9.076          747.62364    
       267   0             -659.56646      201295.39      207094.76      205120.87      191670.55      2136.1777      675.47296     -7382.3249      9.0759909      9.076          9.076          747.62364    
       268   0             -659.57198      202913.7       208354.29      206883.4       193503.42      2193.9746     -890.23656     -7425.1042      9.0759909      9.076          9.076          747.62364    
       269   0             -659.582        203909.31      209303.27      208167.63      194257.03      1788.7929     -653.03703     -8137.275       9.0759909      9.076          9.076          747.62364    
       270   0             -659.58577      203465.68      208784.23      207703.34      193909.46      1687.7022      994.72016     -7937.5385      9.0759909      9.076          9.076          747.62364    
       271   0             -659.58932      203860.11      208495.41      208100.11      194984.81      2146.3358      609.19287     -7399.0459      9.0759909      9.076          9.076          747.62364    
       272   0             -659.59775      204770.72      209456.41      209042.18      195813.58      2292.0708      644.65103     -8036.4825      9.0759909      9.076          9.076          747.62364    
       273   0             -659.60035      205269.86      210227.05      209700.56      195881.98      1620.009       935.06137     -8642.7421      9.0759909      9.076          9.076          747.62364    
       274   0             -659.60271      206328.17      211161.48      210865.5       196957.52      1270.7158      142.35699     -8789.1904      9.0759909      9.076          9.076          747.62364    
       275   0             -659.60791      207736.65      213052.35      212468.85      197688.74      877.71446      817.97216     -9910.0922      9.0759909      9.076          9.076          747.62364    
       276   0             -659.61531      209179.69      213842.8       214105.68      199590.58      918.78802      983.82039     -9733.5117      9.0759909      9.076          9.076          747.62364    
       277   0             -659.61784      209118.46      213548.9       214036.46      199770.01      989.16341      1275.3838     -9807.5599      9.0759909      9.076          9.076          747.62364    
       278   0             -659.61891      208800.54      213503.13      213588.47      199310         1092.4444      1451.2198     -10421.469      9.0759909      9.076          9.076          747.62364    
       279   0             -659.61973      208829.28      213393.32      213531.14      199563.37      1335.7006      1126.9182     -10332.991      9.0759909      9.076          9.076          747.62364    
       280   0             -659.62077      209195.94      213525.17      214007.72      200054.94      1121.4256      1384.2085     -9845.0777      9.0759909      9.076          9.076          747.62364    
       281   0             -659.62225      209527.52      214022.81      214502.62      200057.14      461.41176      1955.0477     -10248.188      9.0759909      9.076          9.076          747.62364    
       282   0             -659.62383      209840.67      214306.33      214752.05      200463.63      651.45542      1012.9696     -10591.202      9.0759909      9.076          9.076          747.62364    
       283   0             -659.62718      210301.1       214940.99      215091.9       200870.41      1076.274       1323.3859     -10559.848      9.0759909      9.076          9.076          747.62364    
       284   0             -659.62934      210711.34      215170.3       215820.42      201143.29      698.31815      2438.5726     -11058.054      9.0759909      9.076          9.076          747.62364    
       285   0             -659.63034      211110.57      215265.35      216403.52      201662.85      798.36419      2161.6521     -11116.778      9.0759909      9.076          9.076          747.62364    
       286   0             -659.63121      211263.99      215612.53      216523.82      201655.62      989.4219       2074.4251     -11013.074      9.0759909      9.076          9.076          747.62364    
       287   0             -659.63238      211730.38      216097.04      216947.54      202146.58      925.74841      1700.5769     -11100.914      9.0759909      9.076          9.076          747.62364    
       288   0             -659.6333       212207.93      216350.12      217536.88      202736.8       821.69141      1815.835      -11665.239      9.0759909      9.076          9.076          747.62364    
       289   0             -659.63471      212733.37      216894.73      218132.42      203172.97      1117.4489      2689.0867     -11832.066      9.0759909      9.076          9.076          747.62364    
       290   0             -659.63583      213349.77      217312.13      218742.81      203994.38      1915.8075      1679.0307     -11104.625      9.0759909      9.076          9.076          747.62364    
       291   0             -659.63763      214049.03      218150.69      219687.84      204308.56      2237.5465      929.15469     -12234.333      9.0759909      9.076          9.076          747.62364    
       292   0             -659.63951      214726.58      218864.41      220573.69      204741.63      2363.9767      1977.2149     -13004.017      9.0759909      9.076          9.076          747.62364    
       293   0             -659.64253      215589.53      219440.75      221497.21      205830.63      2937.5567      1977.6407     -12856.47       9.0759909      9.076          9.076          747.62364    
       294   0             -659.64512      216073.66      219970.78      221943.18      206307.04      3441.2785      284.74033     -12464.858      9.0759909      9.076          9.076          747.62364    
       295   0             -659.6489       216871.02      220471.93      223026.38      207114.74      4030.1679     -342.99153     -12388.23       9.0759909      9.076          9.076          747.62364    
       296   0             -659.65482      217298.3       220466.7       223822.87      207605.34      4256.9089      1379.1353     -13090.632      9.0759909      9.076          9.076          747.62364    
       297   0             -659.66118      217485.14      220914.12      224090.51      207450.79      4755.8966      1629.3135     -13724.617      9.0759909      9.076          9.076          747.62364    
       298   0             -659.66471      217687.62      220998.25      224292.67      207771.93      5300.142      -453.80559     -13010.639      9.0759909      9.076          9.076          747.62364    
       299   0             -659.66935      217750.58      220994.33      224599.42      207658         5694.3657     -677.00101     -13337.661      9.0759909      9.076          9.076          747.62364    
       300   0             -659.6731       217656.67      220915.72      224674.11      207380.16      5489.4549      1317.3458     -14469.989      9.0759909      9.076          9.076          747.62364    
       301   0             -659.6779       218131.44      221423.02      225125.01      207846.3       5767.8232      1442.5882     -14505.366      9.0759909      9.076          9.076          747.62364    
       302   0             -659.68269      218461.23      221813.37      225501.02      208069.3       5782.2454     -229.18296     -13929.617      9.0759909      9.076          9.076          747.62364    
       303   0             -659.6867       218560.13      221408.72      225891.83      208379.82      5704.514      -302.788       -13860.719      9.0759909      9.076          9.076          747.62364    
       304   0             -659.69001      218461.5       221691.91      225661.12      208031.48      5825.5228      1486.9353     -14319.971      9.0759909      9.076          9.076          747.62364    
       305   0             -659.69153      218671.19      221972.7       225745.95      208294.92      6060.979       761.90653     -14595.084      9.0759909      9.076          9.076          747.62364    
       306   0             -659.6933       218720.05      221953.18      225761.81      208445.17      5847.3382      534.76084     -14375.611      9.0759909      9.076          9.076          747.62364    
       307   0             -659.69454      218541.59      221776.35      225656.83      208191.59      5609.7711      878.95401     -14387.963      9.0759909      9.076          9.076          747.62364    
       308   0             -659.69528      218595.19      221676.36      225617.05      208492.16      5755.5406      1117.325      -13861.849      9.0759909      9.076          9.076          747.62364    
       309   0             -659.69581      218571.59      221856.27      225589.83      208268.67      5669.4367      1631.3856     -14012.46       9.0759909      9.076          9.076          747.62364    
       310   0             -659.69632      218588.3       221854.47      225459.32      208451.12      5713.5028      1431.3027     -13785.685      9.0759909      9.076          9.076          747.62364    
       311   0             -659.69679      218429.16      221798.47      225270.25      208218.74      5584.8305      841.79846     -14312.692      9.0759909      9.076          9.076          747.62364    
       312   0             -659.6974       218315.95      221677.15      225046.52      208224.17      5518.468       1333.5937     -14299.475      9.0759909      9.076          9.076          747.62364    
       313   0             -659.69798      218309.44      221576.44      225064.33      208287.54      5538.5353      1533.1308     -14185.601      9.0759909      9.076          9.076          747.62364    
       314   0             -659.69829      218237.64      221679.23      224920.18      208113.5       5535.3869      1367.1162     -14199.999      9.0759909      9.076          9.076          747.62364    
       315   0             -659.6987       218157.86      221570.35      224762.74      208140.48      5370.2632      1563.9527     -14269.919      9.0759909      9.076          9.076          747.62364    
       316   0             -659.6993       217956.57      221071.96      224516.25      208281.51      5024.3461      1868.6305     -14191.477      9.0759909      9.076          9.076          747.62364    
       317   0             -659.69999      217537.58      220840.2       224142.55      207629.98      4660.8147      1827.116      -14688.444      9.0759909      9.076          9.076          747.62364    
       318   0             -659.70074      217298.59      220519.89      223789.07      207586.81      4599.2265      1383.637      -14352.866      9.0759909      9.076          9.076          747.62364    
[...]
       462   0             -659.77753      213263.99      216321.22      217008.93      206461.81      296.57305     -82.527344     -12621.474      9.076          9.076          9.076          747.62439    
       463   0             -659.77753      213264.01      216321.25      217008.92      206461.85      296.58884     -82.568752     -12621.454      9.076          9.076          9.076          747.62439    
       464   0             -659.77753      213264.03      216321.26      217008.94      206461.9       296.63116     -82.577554     -12621.405      9.076          9.076          9.076          747.62439    
       465   0             -659.77753      213264.04      216321.27      217008.95      206461.89      296.62836     -82.574945     -12621.449      9.076          9.076          9.076          747.62439    
       466   0             -659.77753      213264.04      216321.26      217008.96      206461.9       296.62331     -82.604517     -12621.454      9.076          9.076          9.076          747.62439    
       467   0             -659.77753      213264.03      216321.25      217008.94      206461.91      296.61139     -82.604667     -12621.387      9.076          9.076          9.076          747.62439    
       468   0             -659.77753      213264.03      216321.25      217008.94      206461.89      296.59753     -82.589288     -12621.405      9.076          9.076          9.076          747.62439    
       469   0             -659.77753      213264.05      216321.26      217008.96      206461.92      296.62486     -82.601681     -12621.416      9.076          9.076          9.076          747.62439    
       470   0             -659.77753      213264.06      216321.26      217008.96      206461.95      296.64745     -82.62532      -12621.382      9.076          9.076          9.076          747.62439    
       471   0             -659.77753      213264.06      216321.27      217008.96      206461.94      296.6447      -82.637957     -12621.405      9.076          9.076          9.076          747.62439    
       472   0             -659.77753      213264.05      216321.26      217008.97      206461.94      296.63089     -82.646737     -12621.423      9.076          9.076          9.076          747.62439    
       473   0             -659.77753      213264.06      216321.25      217008.97      206461.96      296.63146     -82.643265     -12621.391      9.076          9.076          9.076          747.62439    
       474   0             -659.77753      213264.06      216321.24      217008.97      206461.95      296.62858     -82.633241     -12621.391      9.076          9.076          9.076          747.62439    
       475   0             -659.77753      213264.06      216321.26      217008.97      206461.95      296.6363      -82.649055     -12621.397      9.076          9.076          9.076          747.62439    
       476   0             -659.77753      213264.06      216321.26      217008.97      206461.96      296.63948     -82.6537       -12621.389      9.076          9.076          9.076          747.62439    
       477   0             -659.77753      213264.07      216321.26      217008.98      206461.96      296.63175     -82.64744      -12621.402      9.076          9.076          9.076          747.62439    
       478   0             -659.77753      213264.06      216321.26      217008.98      206461.95      296.62798     -82.654247     -12621.401      9.076          9.076          9.076          747.62439    
       479   0             -659.77753      213264.06      216321.26      217008.98      206461.96      296.63105     -82.661735     -12621.387      9.076          9.076          9.076          747.62439    
       480   0             -659.77753      213264.06      216321.26      217008.98      206461.95      296.6315      -82.658419     -12621.392      9.076          9.076          9.076          747.62439    
       481   0             -659.77753      213264.06      216321.26      217008.98      206461.95      296.63265     -82.653242     -12621.401      9.076          9.076          9.076          747.62439    
       482   0             -659.77753      213264.06      216321.26      217008.98      206461.96      296.63639     -82.656174     -12621.393      9.076          9.076          9.076          747.62439    
       483   0             -659.77753      213264.06      216321.26      217008.98      206461.95      296.63717     -82.662552     -12621.39       9.076          9.076          9.076          747.62439    
       484   0             -659.77753      213264.06      216321.26      217008.98      206461.95      296.6363      -82.662607     -12621.398      9.076          9.076          9.076          747.62439    
       485   0             -659.77753      213264.06      216321.25      217008.98      206461.95      296.63862     -82.663085     -12621.396      9.076          9.076          9.076          747.62439    
       486   0             -659.77753      213264.06      216321.25      217008.98      206461.95      296.64007     -82.660281     -12621.391      9.076          9.076          9.076          747.62439    
       487   0             -659.77753      213264.06      216321.26      217008.98      206461.95      296.63873     -82.659384     -12621.394      9.076          9.076          9.076          747.62439    
       488   0             -659.77753      213264.06      216321.26      217008.98      206461.95      296.63925     -82.661559     -12621.393      9.076          9.076          9.076          747.62439    
       489   0             -659.77753      213264.07      216321.26      217008.99      206461.95      296.64005     -82.663804     -12621.394      9.076          9.076          9.076          747.62439    
       490   0             -659.77753      213264.06      216321.26      217008.99      206461.95      296.63996     -82.664516     -12621.396      9.076          9.076          9.076          747.62439    
       491   0             -659.77753      213264.06      216321.26      217008.98      206461.95      296.64108     -82.665394     -12621.392      9.076          9.076          9.076          747.62439    
       492   0             -659.77753      213264.06      216321.25      217008.98      206461.95      296.64104     -82.662782     -12621.391      9.076          9.076          9.076          747.62439    
       493   0             -659.77753      213264.06      216321.25      217008.98      206461.95      296.64104     -82.662903     -12621.393      9.076          9.076          9.076          747.62439    
       494   0             -659.77753      213264.07      216321.26      217008.99      206461.95      296.64274     -82.6655       -12621.393      9.076          9.076          9.076          747.62439    
       495   0             -659.77753      213264.07      216321.26      217008.99      206461.95      296.64345     -82.665328     -12621.392      9.076          9.076          9.076          747.62439    
       496   0             -659.77753      213264.07      216321.26      217008.99      206461.95      296.64276     -82.665465     -12621.394      9.076          9.076          9.076          747.62439    
       497   0             -659.77753      213264.07      216321.26      217008.99      206461.96      296.64279     -82.667307     -12621.393      9.076          9.076          9.076          747.62439    
       498   0             -659.77753      213264.07      216321.26      217008.99      206461.96      296.64413     -82.665836     -12621.391      9.076          9.076          9.076          747.62439    
       499   0             -659.77753      213264.07      216321.26      217008.99      206461.96      296.64403     -82.664869     -12621.392      9.076          9.076          9.076          747.62439    
       500   0             -659.77753      213264.07      216321.26      217008.99      206461.96      296.64376     -82.666637     -12621.394      9.076          9.076          9.076          747.62439    
       501   0             -659.77753      213264.07      216321.26      217008.99      206461.96      296.64396     -82.667097     -12621.392      9.076          9.076          9.076          747.62439    
Loop time of 1.01022 on 1 procs for 500 steps with 64 atoms

99.6% CPU use with 1 MPI tasks x no OpenMP threads

Minimization stats:
  Stopping criterion = max iterations
  Energy initial, next-to-last, final = 
     -653.439999864312  -659.777532931195  -659.777532931195
  Force two-norm initial, final = 0.00061932427 7.8843117e-07
  Force max component initial, final = 0.00013502438 3.4935336e-07
  Final line search alpha, max atom move = 1 3.4935336e-07
  Iterations, force evaluations = 500 746

MPI task timing breakdown:
Section |  min time  |  avg time  |  max time  |%varavg| %total
---------------------------------------------------------------
Pair    | 1.0002     | 1.0002     | 1.0002     |   0.0 | 99.01
Neigh   | 0.0010355  | 0.0010355  | 0.0010355  |   0.0 |  0.10
Comm    | 0.003137   | 0.003137   | 0.003137   |   0.0 |  0.31
Output  | 0.0035924  | 0.0035924  | 0.0035924  |   0.0 |  0.36
Modify  | 0          | 0          | 0          |   0.0 |  0.00
Other   |            | 0.002224   |            |       |  0.22

Nlocal:             64 ave          64 max          64 min
Histogram: 1 0 0 0 0 0 0 0 0 0
Nghost:           1267 ave        1267 max        1267 min
Histogram: 1 0 0 0 0 0 0 0 0 0
Neighs:           6811 ave        6811 max        6811 min
Histogram: 1 0 0 0 0 0 0 0 0 0
FullNghs:        13622 ave       13622 max       13622 min
Histogram: 1 0 0 0 0 0 0 0 0 0

Total # of neighbors = 13622
Ave neighs/atom = 212.84375
Neighbor list builds = 2
Dangerous builds = 0

# Obtain new stress tensor

variable tmp equal pe
variable e1 equal ${tmp}
variable e1 equal -659.777532931195
variable tmp equal press
variable p1 equal ${tmp}
variable p1 equal 213264.068512401
variable tmp equal pxx
variable pxx1 equal ${tmp}
variable pxx1 equal 216321.257262381
variable tmp equal pyy
variable pyy1 equal ${tmp}
variable pyy1 equal 217008.989924356
variable tmp equal pzz
variable pzz1 equal ${tmp}
variable pzz1 equal 206461.958350465
variable tmp equal pxy
variable pxy1 equal ${tmp}
variable pxy1 equal 296.643956370644
variable tmp equal pxz
variable pxz1 equal ${tmp}
variable pxz1 equal -82.6670973739396
variable tmp equal pyz
variable pyz1 equal ${tmp}
variable pyz1 equal -12621.392050908

# Compute elastic constant from pressure tensor

variable C1pos equal ${d1}
variable C1pos equal -21632125.726243
variable C2pos equal ${d2}
variable C2pos equal -21700898.9924405
variable C3pos equal ${d3}
variable C3pos equal -20646195.8350514
variable C4pos equal ${d4}
variable C4pos equal 1262139.2050908
variable C5pos equal ${d5}
variable C5pos equal 8266.70973739396
variable C6pos equal ${d6}
variable C6pos equal -29664.3956370644

# Combine positive and negative

variable C1${dir} equal 0.5*(${C1neg}+${C1pos})
variable C16 equal 0.5*(${C1neg}+${C1pos})
variable C16 equal 0.5*(21632095.3671549+${C1pos})
variable C16 equal 0.5*(21632095.3671549+-21632125.726243)
variable C2${dir} equal 0.5*(${C2neg}+${C2pos})
variable C26 equal 0.5*(${C2neg}+${C2pos})
variable C26 equal 0.5*(21700862.7187535+${C2pos})
variable C26 equal 0.5*(21700862.7187535+-21700898.9924405)
variable C3${dir} equal 0.5*(${C3neg}+${C3pos})
variable C36 equal 0.5*(${C3neg}+${C3pos})
variable C36 equal 0.5*(20646152.7393739+${C3pos})
variable C36 equal 0.5*(20646152.7393739+-20646195.8350514)
variable C4${dir} equal 0.5*(${C4neg}+${C4pos})
variable C46 equal 0.5*(${C4neg}+${C4pos})
variable C46 equal 0.5*(-1262151.6701792+${C4pos})
variable C46 equal 0.5*(-1262151.6701792+1262139.2050908)
variable C5${dir} equal 0.5*(${C5neg}+${C5pos})
variable C56 equal 0.5*(${C5neg}+${C5pos})
variable C56 equal 0.5*(-8240.25696636855+${C5pos})
variable C56 equal 0.5*(-8240.25696636855+8266.70973739396)
variable C6${dir} equal 0.5*(${C6neg}+${C6pos})
variable C66 equal 0.5*(${C6neg}+${C6pos})
variable C66 equal 0.5*(29819.954336227+${C6pos})
variable C66 equal 0.5*(29819.954336227+-29664.3956370644)

# Delete dir to make sure it is not reused

variable dir delete

# Output final values

variable C11all equal ${C11}
variable C11all equal 372.808896450326
variable C22all equal ${C22}
variable C22all equal 350.803481500596
variable C33all equal ${C33}
variable C33all equal 298.164981750771

variable C12all equal 0.5*(${C12}+${C21})
variable C12all equal 0.5*(211.590225649998+${C21})
variable C12all equal 0.5*(211.590225649998+211.216700550169)
variable C13all equal 0.5*(${C13}+${C31})
variable C13all equal 0.5*(197.870390700176+${C31})
variable C13all equal 0.5*(197.870390700176+196.181630950421)
variable C23all equal 0.5*(${C23}+${C32})
variable C23all equal 0.5*(173.7409544494+${C32})
variable C23all equal 0.5*(173.7409544494+173.371810751036)

variable C44all equal ${C44}
variable C44all equal 94.9905161900679
variable C55all equal ${C55}
variable C55all equal 58.7471096683348
variable C66all equal ${C66}
variable C66all equal 77.7793495813003

variable C14all equal 0.5*(${C14}+${C41})
variable C14all equal 0.5*(-1.2277889996767+${C41})
variable C14all equal 0.5*(-1.2277889996767+-2.55040596507024)
variable C15all equal 0.5*(${C15}+${C51})
variable C15all equal 0.5*(3.84185495041311+${C51})
variable C15all equal 0.5*(3.84185495041311+4.22433574739534)
variable C16all equal 0.5*(${C16}+${C61})
variable C16all equal 0.5*(-15.1795440502465+${C61})
variable C16all equal 0.5*(-15.1795440502465+-15.5979452865504)

variable C24all equal 0.5*(${C24}+${C42})
variable C24all equal 0.5*(-2.93541200086474+${C42})
variable C24all equal 0.5*(-2.93541200086474+-5.14230309496634)
variable C25all equal 0.5*(${C25}+${C52})
variable C25all equal 0.5*(4.96421694941819+${C52})
variable C25all equal 0.5*(4.96421694941819+4.80100445874541)
variable C26all equal 0.5*(${C26}+${C62})
variable C26all equal 0.5*(-18.1368434987962+${C62})
variable C26all equal 0.5*(-18.1368434987962+-17.67912715905)

variable C34all equal 0.5*(${C34}+${C43})
variable C34all equal 0.5*(-13.2817134503275+${C43})
variable C34all equal 0.5*(-13.2817134503275+-12.9726015100023)
variable C35all equal 0.5*(${C35}+${C53})
variable C35all equal 0.5*(15.2062550988048+${C53})
variable C35all equal 0.5*(15.2062550988048+14.8048661249059)
variable C36all equal 0.5*(${C36}+${C63})
variable C36all equal 0.5*(-21.547838749364+${C63})
variable C36all equal 0.5*(-21.547838749364+-21.3422466638513)

variable C45all equal 0.5*(${C45}+${C54})
variable C45all equal 0.5*(2.5515414950205+${C54})
variable C45all equal 0.5*(2.5515414950205+2.49250154484525)
variable C46all equal 0.5*(${C46}+${C64})
variable C46all equal 0.5*(-6.23254419991281+${C64})
variable C46all equal 0.5*(-6.23254419991281+-6.33168261560058)
variable C56all equal 0.5*(${C56}+${C65})
variable C56all equal 0.5*(13.2263855127048+${C65})
variable C56all equal 0.5*(13.2263855127048+13.1484103950006)

# Average moduli for cubic crystals

variable C11cubic equal (${C11all}+${C22all}+${C33all})/3.0
variable C11cubic equal (372.808896450326+${C22all}+${C33all})/3.0
variable C11cubic equal (372.808896450326+350.803481500596+${C33all})/3.0
variable C11cubic equal (372.808896450326+350.803481500596+298.164981750771)/3.0
variable C12cubic equal (${C12all}+${C13all}+${C23all})/3.0
variable C12cubic equal (211.403463100084+${C13all}+${C23all})/3.0
variable C12cubic equal (211.403463100084+197.026010825298+${C23all})/3.0
variable C12cubic equal (211.403463100084+197.026010825298+173.556382600218)/3.0
variable C44cubic equal (${C44all}+${C55all}+${C66all})/3.0
variable C44cubic equal (94.9905161900679+${C55all}+${C66all})/3.0
variable C44cubic equal (94.9905161900679+58.7471096683348+${C66all})/3.0
variable C44cubic equal (94.9905161900679+58.7471096683348+77.7793495813003)/3.0

variable bulkmodulus equal (${C11cubic}+2*${C12cubic})/3.0
variable bulkmodulus equal (340.592453233898+2*${C12cubic})/3.0
variable bulkmodulus equal (340.592453233898+2*193.995285508533)/3.0
variable shearmodulus1 equal ${C44cubic}
variable shearmodulus1 equal 77.1723251465677
variable shearmodulus2 equal (${C11cubic}-${C12cubic})/2.0
variable shearmodulus2 equal (340.592453233898-${C12cubic})/2.0
variable shearmodulus2 equal (340.592453233898-193.995285508533)/2.0
variable poissonratio equal 1.0/(1.0+${C11cubic}/${C12cubic})
variable poissonratio equal 1.0/(1.0+340.592453233898/${C12cubic})
variable poissonratio equal 1.0/(1.0+340.592453233898/193.995285508533)

# For Stillinger-Weber silicon, the analytical results
# are known to be (E. R. Cowley, 1988):
#               C11 = 151.4 GPa
#               C12 = 76.4 GPa
#               C44 = 56.4 GPa

print "========================================="
=========================================
print "Components of the Elastic Constant Tensor"
Components of the Elastic Constant Tensor
print "========================================="
=========================================

print "Elastic Constant C11all = ${C11all} ${cunits}"
Elastic Constant C11all = 372.808896450326 GPa
print "Elastic Constant C22all = ${C22all} ${cunits}"
Elastic Constant C22all = 350.803481500596 GPa
print "Elastic Constant C33all = ${C33all} ${cunits}"
Elastic Constant C33all = 298.164981750771 GPa

print "Elastic Constant C12all = ${C12all} ${cunits}"
Elastic Constant C12all = 211.403463100084 GPa
print "Elastic Constant C13all = ${C13all} ${cunits}"
Elastic Constant C13all = 197.026010825298 GPa
print "Elastic Constant C23all = ${C23all} ${cunits}"
Elastic Constant C23all = 173.556382600218 GPa

print "Elastic Constant C44all = ${C44all} ${cunits}"
Elastic Constant C44all = 94.9905161900679 GPa
print "Elastic Constant C55all = ${C55all} ${cunits}"
Elastic Constant C55all = 58.7471096683348 GPa
print "Elastic Constant C66all = ${C66all} ${cunits}"
Elastic Constant C66all = 77.7793495813003 GPa

print "Elastic Constant C14all = ${C14all} ${cunits}"
Elastic Constant C14all = -1.88909748237347 GPa
print "Elastic Constant C15all = ${C15all} ${cunits}"
Elastic Constant C15all = 4.03309534890422 GPa
print "Elastic Constant C16all = ${C16all} ${cunits}"
Elastic Constant C16all = -15.3887446683985 GPa

print "Elastic Constant C24all = ${C24all} ${cunits}"
Elastic Constant C24all = -4.03885754791554 GPa
print "Elastic Constant C25all = ${C25all} ${cunits}"
Elastic Constant C25all = 4.8826107040818 GPa
print "Elastic Constant C26all = ${C26all} ${cunits}"
Elastic Constant C26all = -17.9079853289231 GPa

print "Elastic Constant C34all = ${C34all} ${cunits}"
Elastic Constant C34all = -13.1271574801649 GPa
print "Elastic Constant C35all = ${C35all} ${cunits}"
Elastic Constant C35all = 15.0055606118553 GPa
print "Elastic Constant C36all = ${C36all} ${cunits}"
Elastic Constant C36all = -21.4450427066077 GPa

print "Elastic Constant C45all = ${C45all} ${cunits}"
Elastic Constant C45all = 2.52202151993288 GPa
print "Elastic Constant C46all = ${C46all} ${cunits}"
Elastic Constant C46all = -6.28211340775669 GPa
print "Elastic Constant C56all = ${C56all} ${cunits}"
Elastic Constant C56all = 13.1873979538527 GPa

print "========================================="
=========================================
print "Average properties for a cubic crystal"
Average properties for a cubic crystal
print "========================================="
=========================================

print "Bulk Modulus = ${bulkmodulus} ${cunits}"
Bulk Modulus = 242.861008083655 GPa
print "Shear Modulus 1 = ${shearmodulus1} ${cunits}"
Shear Modulus 1 = 77.1723251465677 GPa
print "Shear Modulus 2 = ${shearmodulus2} ${cunits}"
Shear Modulus 2 = 73.2985838626825 GPa
print "Poisson Ratio = ${poissonratio}"
Poisson Ratio = 0.36288764490725
variable length equal "lx"
print "Lattice constant (Angstroms) = ${length};"
Lattice constant (Angstroms) = 9.07599999684796;
Total wall time: 0:00:12
