LAMMPS (23 Jun 2022)
Lattice spacing in x,y,z = 4.538 4.538 4.538
Created triclinic box = (-4.538 -4.538 -4.538) to (4.538 4.538 4.538) with tilt (0 0 0)
  1 by 1 by 1 MPI processor grid
Lattice spacing in x,y,z = 4.538 4.538 4.538
Created 32 atoms
  using lattice units in triclinic box = (-4.538 -4.538 -4.538) to (4.538 4.538 4.538) with tilt (0 0 0)
  create_atoms CPU = 0.000 seconds
Lattice spacing in x,y,z = 4.538 4.538 4.538
Created 32 atoms
  using lattice units in triclinic box = (-4.538 -4.538 -4.538) to (4.538 4.538 4.538) with tilt (0 0 0)
  create_atoms CPU = 0.000 seconds
Reading MEAM library file library_HfN.meam with DATE: 2015-02-12
Neighbor list info ...
  update every 1 steps, delay 0 steps, check yes
  max neighbors/atom: 2000, page size: 100000
  master list distance cutoff = 8.38
  ghost atom cutoff = 8.38
  2 neighbor lists, perpetual/occasional/extra = 2 0 0
  (1) pair meam, perpetual
      attributes: full, newton on
      pair build: full/nsq
      stencil: none
      bin: none
  (2) pair meam, perpetual, half/full from (1)
      attributes: half, newton on
      pair build: halffull/newton
      stencil: none
      bin: none
Setting up cg style minimization ...
  Unit style    : metal
  Current step  : 0
WARNING: Energy due to 3 extra global DOFs will be included in minimizer energies
Per MPI rank memory allocation (min/avg/max) = 10.24 | 10.24 | 10.24 Mbytes
   Step          Temp          PotEng         Press           Pxx            Pyy            Pzz            Pxy            Pxz            Pyz             Lx             Ly             Lz           Volume    
         0   0             -653.44        -0.004375024   -0.004375024   -0.004375024   -0.004375024    5.6725355e-20  8.5088032e-20  0              9.076          9.076          9.076          747.62439    
         1   0             -653.44        -4.8534509e-08 -4.8534509e-08 -4.8534509e-08 -4.8534509e-08  0             -2.1639006e-25 -8.6556022e-25  9.076          9.076          9.076          747.62439    
Loop time of 0.002882 on 1 procs for 1 steps with 64 atoms

99.8% CPU use with 1 MPI tasks x no OpenMP threads

Minimization stats:
  Stopping criterion = force tolerance
  Energy initial, next-to-last, final = 
     -653.439999877045  -653.439999877045  -653.439999877036
  Force two-norm initial, final = 3.5360156e-06 3.9226934e-11
  Force max component initial, final = 2.0415196e-06 2.2647681e-11
  Final line search alpha, max atom move = 1 2.2647681e-11
  Iterations, force evaluations = 1 2

MPI task timing breakdown:
Section |  min time  |  avg time  |  max time  |%varavg| %total
---------------------------------------------------------------
Pair    | 0.0028245  | 0.0028245  | 0.0028245  |   0.0 | 98.00
Neigh   | 0          | 0          | 0          |   0.0 |  0.00
Comm    | 1.4114e-05 | 1.4114e-05 | 1.4114e-05 |   0.0 |  0.49
Output  | 0          | 0          | 0          |   0.0 |  0.00
Modify  | 0          | 0          | 0          |   0.0 |  0.00
Other   |            | 4.342e-05  |            |       |  1.51

Nlocal:             64 ave          64 max          64 min
Histogram: 1 0 0 0 0 0 0 0 0 0
Nghost:           1267 ave        1267 max        1267 min
Histogram: 1 0 0 0 0 0 0 0 0 0
Neighs:           6464 ave        6464 max        6464 min
Histogram: 1 0 0 0 0 0 0 0 0 0
FullNghs:        12928 ave       12928 max       12928 min
Histogram: 1 0 0 0 0 0 0 0 0 0

Total # of neighbors = 12928
Ave neighs/atom = 202
Neighbor list builds = 0
Dangerous builds = 0
Displacing atoms ...
System init for write_restart ...
Reading restart file ...
  restart file = 23 Jun 2022, LAMMPS = 23 Jun 2022
  restoring atom style atomic from restart
  triclinic box = (-4.538 -4.538 -4.538) to (4.538 4.538 4.538) with tilt (0 0 0)
  1 by 1 by 1 MPI processor grid
  pair style meam stores no restart info
  64 atoms
  read_restart CPU = 0.000 seconds
Reading MEAM library file library_HfN.meam with DATE: 2015-02-12
Changing box ...
  triclinic box = (-4.538 -4.538 -4.538) to (4.5379909 4.538 4.538) with tilt (0 0 0)
  triclinic box = (-4.538 -4.538 -4.538) to (4.5379909 4.538 4.538) with tilt (0 0 0)
  triclinic box = (-4.538 -4.538 -4.538) to (4.5379909 4.538 4.538) with tilt (0 0 0)
Neighbor list info ...
  update every 1 steps, delay 0 steps, check yes
  max neighbors/atom: 2000, page size: 100000
  master list distance cutoff = 8.38
  ghost atom cutoff = 8.38
  2 neighbor lists, perpetual/occasional/extra = 2 0 0
  (1) pair meam, perpetual
      attributes: full, newton on
      pair build: full/nsq
      stencil: none
      bin: none
  (2) pair meam, perpetual, half/full from (1)
      attributes: half, newton on
      pair build: halffull/newton
      stencil: none
      bin: none
Setting up cg style minimization ...
  Unit style    : metal
  Current step  : 1
Per MPI rank memory allocation (min/avg/max) = 10.2 | 10.2 | 10.2 Mbytes
   Step          Temp          PotEng         Press           Pxx            Pyy            Pzz            Pxy            Pxz            Pyz             Lx             Ly             Lz           Volume    
         1   0             -653.44         4.1993611      4.9899909      3.8040439      3.8040486      8.788331e-06   1.0254485e-05  6.6748372e-06  9.0759909      9.076          9.076          747.62364    
         2   0             -653.44         4.1992582      4.9898893      3.8039382      3.8039471      1.1748509e-06 -1.7838803e-06  1.4055406e-07  9.0759909      9.076          9.076          747.62364    
         3   0             -653.44         4.1991812      4.9898182      3.8038628      3.8038626      3.4578111e-06  1.0620174e-06 -8.3882106e-07  9.0759909      9.076          9.076          747.62364    
         4   0             -653.44         4.1991069      4.9897392      3.803791       3.8037905      1.629186e-06  -2.7364822e-08 -3.2047857e-07  9.0759909      9.076          9.076          747.62364    
         5   0             -653.44         4.1990753      4.9897086      3.8037595      3.8037579      1.1042457e-06 -7.8908923e-07 -3.812984e-07   9.0759909      9.076          9.076          747.62364    
         6   0             -653.44         4.1990514      4.9896854      3.8037353      3.8037334      8.0251579e-07 -1.109147e-06   1.1804108e-07  9.0759909      9.076          9.076          747.62364    
         7   0             -653.44         4.1990093      4.9896446      3.8036926      3.8036906      8.3352028e-07 -1.9026083e-06 -2.1775329e-07  9.0759909      9.076          9.076          747.62364    
         8   0             -653.44         4.1988861      4.9895262      3.8035676      3.8035645      2.7193626e-06 -3.8439593e-06 -1.5305397e-06  9.0759909      9.076          9.076          747.62364    
         9   0             -653.44         4.198385       4.9890492      3.8030548      3.8030509      8.631064e-06  -1.231935e-05  -2.8309004e-06  9.0759909      9.076          9.076          747.62364    
        10   0             -653.44         3.7990191      4.6143538      3.3909596      3.391744       0.0048563963  -0.0057298348  -0.00063187244  9.0759909      9.076          9.076          747.62364    
        11   0             -653.44013     -62.869762     -57.883057     -65.438142     -65.288086      0.81837304    -0.9397161     -0.11779998     9.0759909      9.076          9.076          747.62364    
        12   0             -653.44049     -243.74222     -227.46085     -252.17157     -251.59424      3.0374407     -3.458312      -0.45820499     9.0759909      9.076          9.076          747.62364    
        13   0             -653.44106     -538.73698     -504.14487     -556.67492     -555.39117      6.6817116     -7.5527109     -1.0528066      9.0759909      9.076          9.076          747.62364    
        14   0             -653.44183     -947.74042     -887.98309     -978.7529      -976.48526      11.774667     -13.22329      -1.9367152      9.0759909      9.076          9.076          747.62364    
        15   0             -653.4428      -1471.0675     -1379.4719     -1518.6347     -1515.096       18.348475     -20.478357     -3.1654213      9.0759909      9.076          9.076          747.62364    
        16   0             -653.44407     -2111.643      -1981.547      -2179.1787     -2174.2032      26.461096     -29.316613     -4.8958442      9.0759909      9.076          9.076          747.62364    
        17   0             -653.4465      -2895.3171     -2718.0787     -2987.0663     -2980.8062      36.341957     -39.665177     -7.828246       9.0759909      9.076          9.076          747.62364    
        18   0             -653.44929     -3073.6499     -2880.4344     -3173.7725     -3166.7429      37.024139     -40.762892     -5.7082091      9.0759909      9.076          9.076          747.62364    
        19   0             -653.45689     -3965.7294     -3704.5552     -4119.551      -4073.082       31.352261     -56.488368     -1.4676723      9.0759909      9.076          9.076          747.62364    
        20   0             -653.4637      -4970.5033     -4623.3572     -5166.9213     -5121.2315      34.805625     -67.429143     -8.366598       9.0759909      9.076          9.076          747.62364    
        21   0             -653.46925     -6120.8072     -5691.1785     -6371.4166     -6299.8264      38.398365     -80.429767     -10.896981      9.0759909      9.076          9.076          747.62364    
        22   0             -653.47652     -7514.6596     -6975.7591     -7831.101      -7737.1186      45.36415      -93.700122     -12.444976      9.0759909      9.076          9.076          747.62364    
        23   0             -653.47915     -7974.0308     -7390.4991     -8310.6847     -8220.9085      46.424761     -96.819126     -11.017743      9.0759909      9.076          9.076          747.62364    
        24   0             -653.48593     -10080.029     -9331.4812     -10530.242     -10378.365      53.390758     -112.94248     -10.007329      9.0759909      9.076          9.076          747.62364    
        25   0             -653.49687     -12523.25      -11585.946     -13086.316     -12897.489      64.264255     -84.511651     -15.397735      9.0759909      9.076          9.076          747.62364    
        26   0             -653.50242     -13378.146     -12373.968     -13970.861     -13789.609      67.027546     -63.866519     -26.829777      9.0759909      9.076          9.076          747.62364    
        27   0             -653.50631     -14736.295     -13628.179     -15394.998     -15185.709      64.952244     -2.6142586     -32.304567      9.0759909      9.076          9.076          747.62364    
        28   0             -653.5174      -17552.568     -16219.95      -18347.271     -18090.482      12.75829       299.2471      -33.016258      9.0759909      9.076          9.076          747.62364    
        29   0             -653.52134     -18106.178     -16718.552     -18926.748     -18673.233     -9.0663844      401.44203     -27.348421      9.0759909      9.076          9.076          747.62364    
        30   0             -653.52745     -20239.698     -18680.332     -21171.103     -20867.659     -131.00634      913.31776     -16.558699      9.0759909      9.076          9.076          747.62364    
        31   0             -653.53616     -22387.743     -20662.406     -23410.878     -23089.947     -325.535        1688.6095     -23.018104      9.0759909      9.076          9.076          747.62364    
        32   0             -653.54653     -23595.272     -21772.489     -24652.157     -24361.171     -521.32174      2518.5315     -51.066671      9.0759909      9.076          9.076          747.62364    
        33   0             -653.55749     -24510.864     -22600.444     -25603.24      -25328.909     -787.20183      3844.0423     -74.410988      9.0759909      9.076          9.076          747.62364    
        34   0             -653.57347     -24981.67      -22982.402     -26103.273     -25859.336     -1067.068       5496.0677     -96.333515      9.0759909      9.076          9.076          747.62364    
        35   0             -653.59818     -25006.962     -22907.956     -26166.777     -25946.153     -1354.7853      7385.2605     -121.95687      9.0759909      9.076          9.076          747.62364    
        36   0             -653.6325      -24529.62      -22313.573     -25762.262     -25513.025     -1632.8427      9236.8059     -147.02004      9.0759909      9.076          9.076          747.62364    
        37   0             -653.67569     -23501.952     -21140.249     -24882.904     -24482.702     -1886.4604      10677.443     -163.75696      9.0759909      9.076          9.076          747.62364    
        38   0             -653.72476     -21873.816     -19318.437     -23538.65      -22764.36      -2104.7127      11284.442     -162.83464      9.0759909      9.076          9.076          747.62364    
        39   0             -653.77396     -19577.362     -16751.539     -21742.272     -20238.275     -2280.5158      10646.167     -134.18138      9.0759909      9.076          9.076          747.62364    
        40   0             -653.81275     -16790.03      -13623.122     -19676.557     -17070.411     -2408.4408      8742.0834     -74.322079      9.0759909      9.076          9.076          747.62364    
        41   0             -653.83675     -14851.223     -11478.158     -18207.174     -14868.338     -2567.9543      7407.5297     -27.877605      9.0759909      9.076          9.076          747.62364    
        42   0             -653.85843     -14140.478     -10772.764     -17491.813     -14156.858     -2911.3771      7586.1641     -18.938754      9.0759909      9.076          9.076          747.62364    
        43   0             -653.87775     -13036.162     -9616.5198     -16521.242     -12970.723     -3303.5973      7041.5799      21.649445      9.0759909      9.076          9.076          747.62364    
        44   0             -653.89742     -12776.821     -9428.4285     -16062.91      -12839.124     -3919.3165      7372.5482      39.225283      9.0759909      9.076          9.076          747.62364    
        45   0             -653.91339     -11488.931     -8072.1216     -14887.262     -11507.409     -4087.5253      6229.3296      126.18543      9.0759909      9.076          9.076          747.62364    
        46   0             -653.93029     -11803.59      -8504.7299     -14774.26      -12131.78      -4585.0138      7042.7737      119.21314      9.0759909      9.076          9.076          747.62364    
        47   0             -653.94454     -10530.656     -7186.4911     -13437.877     -10967.601     -4214.1512      6064.6255      215.70857      9.0759909      9.076          9.076          747.62364    
        48   0             -653.96244     -11526.85      -8302.6417     -13859.479     -12418.429     -4912.6172      7783.3203      143.0119       9.0759909      9.076          9.076          747.62364    
        49   0             -653.97993     -9966.4366     -6662.2824     -12157.756     -11079.272     -4016.473       7208.8091      232.41281      9.0759909      9.076          9.076          747.62364    
        50   0             -654.00676     -10539.458     -7215.6786     -12498.074     -11904.622     -4856.3952      9351.7044      157.50191      9.0759909      9.076          9.076          747.62364    
        51   0             -654.03813     -10760.628     -7356.1744     -12710.121     -12215.587     -5787.0222      11614.879      102.93795      9.0759909      9.076          9.076          747.62364    
        52   0             -654.07839     -9925.2537     -6373.9041     -11975.604     -11426.253     -6258.1647      13358.122      91.61188       9.0759909      9.076          9.076          747.62364    
        53   0             -654.12672     -8622.6037     -4881.2261     -10867.719     -10118.866     -6772.6181      14789.866      83.546421      9.0759909      9.076          9.076          747.62364    
        54   0             -654.18164     -6950.2751     -2967.0992     -9522.3782     -8361.3479     -7502.7777      15715.677      67.025588      9.0759909      9.076          9.076          747.62364    
        55   0             -654.24382     -4524.2147     -202.64493     -7632.7888     -5737.2104     -8411.0291      15772.071      47.274599      9.0759909      9.076          9.076          747.62364    
        56   0             -654.3005      -2000.3951      2662.1813     -5623.6477     -3039.7188     -9232.807       15428.26       31.472367      9.0759909      9.076          9.076          747.62364    
        57   0             -654.35221      207.02338      5143.6396     -3733.2155     -789.3539      -9757.472       15296.627      32.739531      9.0759909      9.076          9.076          747.62364    
        58   0             -654.40369      2514.126       7696.5844     -1631.064       1476.8576     -9845.8259      15044.643      74.456792      9.0759909      9.076          9.076          747.62364    
        59   0             -654.45359      5311.13        10746.423      982.13866      4204.8286     -9290.4301      14176.554      188.19489      9.0759909      9.076          9.076          747.62364    
        60   0             -654.49203      8448.7033      14121.124      3918.5486      7306.4374     -8054.9066      12518.772      376.09587      9.0759909      9.076          9.076          747.62364    
        61   0             -654.51778      10674.219      16454.212      5983.5091      9584.9349     -7023.6612      11171.554      502.8705       9.0759909      9.076          9.076          747.62364    
        62   0             -654.54446      11045.65       16734.763      6302.6805      10099.506     -7105.8382      11282.789      441.63059      9.0759909      9.076          9.076          747.62364    
        63   0             -654.56517      13052.257      18716.123      8277.2089      12163.438     -5682.8174      9679.5369      582.47316      9.0759909      9.076          9.076          747.62364    
        64   0             -654.57991      11504.58       17017.616      6819.8813      10676.243     -6670.6027      10977.747      404.95365      9.0759909      9.076          9.076          747.62364    
        65   0             -654.59936      12887.629      18364.992      8241.9094      12055.987     -5409.9798      9556.4337      482.7516       9.0759909      9.076          9.076          747.62364    
        66   0             -654.61567      10601.591      15997.444      6068.2986      9739.0295     -6690.6792      10937.425      303.87042      9.0759909      9.076          9.076          747.62364    
        67   0             -654.63542      11813.479      17237.58       7337.4511      10865.406     -5517.2796      9356.7104      401.30395      9.0759909      9.076          9.076          747.62364    
        68   0             -654.65245      11371.086      16886.02       6922.5617      10304.677     -5751.177       9119.2153      394.07709      9.0759909      9.076          9.076          747.62364    
        69   0             -654.6674       12062.113      17626.476      7605.0814      10954.783     -5347.8186      8021.965       416.1904       9.0759909      9.076          9.076          747.62364    
        70   0             -654.68878      11632.456      17252.087      7195.348       10449.933     -5958.0827      7882.0163      413.93548      9.0759909      9.076          9.076          747.62364    
        71   0             -654.70056      10817.922      16503.491      6475.7117      9474.562      -6854.6139      8369.2285      425.65412      9.0759909      9.076          9.076          747.62364    
        72   0             -654.72021      10939.124      16668.334      6611.6721      9537.3673     -7479.7509      8106.0734      455.18608      9.0759909      9.076          9.076          747.62364    
        73   0             -654.74822      12538.425      18216.281      8145.6898      11253.302     -7449.4625      6672.8343      559.22842      9.0759909      9.076          9.076          747.62364    
        74   0             -654.77346      13450.008      19138.92       9095.4662      12115.639     -7853.4305      5908.4064      657.2957       9.0759909      9.076          9.076          747.62364    
        75   0             -654.80392      13654.241      19413.182      9441.279       12108.263     -8673.6259      5943.1019      711.97491      9.0759909      9.076          9.076          747.62364    
        76   0             -654.83423      14954.271      20678.211      11018.864      13165.737     -8388.8374      5275.6603      867.00398      9.0759909      9.076          9.076          747.62364    
        77   0             -654.86563      16338.758      22023.552      12833.938      14158.783     -7738.4134      4728.3905      989.24755      9.0759909      9.076          9.076          747.62364    
        78   0             -654.90225      17948.528      23624.103      15105.786      15115.694     -6524.4381      4283.1726      1053.5536      9.0759909      9.076          9.076          747.62364    
        79   0             -654.94341      18924.935      24592.683      16707.369      15474.752     -5476.3709      4161.6987      965.42351      9.0759909      9.076          9.076          747.62364    
        80   0             -654.9779       19989.036      25642.226      18158.91       16165.97      -4009.6229      3667.5023      947.10703      9.0759909      9.076          9.076          747.62364    
        81   0             -655.00973      20042.566      25663.831      18485.76       15978.106     -3154.0542      3900.492       853.3148       9.0759909      9.076          9.076          747.62364    
        82   0             -655.04249      20698.07       26315.324      19345.856      16433.029     -1878.8641      3733.8672      835.34063      9.0759909      9.076          9.076          747.62364    
        83   0             -655.07752      21313.372      26941.535      20152.063      16846.518     -845.11328      3732.8933      818.85206      9.0759909      9.076          9.076          747.62364    
        84   0             -655.11488      22093.277      27760.287      21143.044      17376.502     -189.0126       3786.9509      801.27655      9.0759909      9.076          9.076          747.62364    
        85   0             -655.15304      23151.445      28900.448      22458.078      18095.81      -80.628867      3833.5768      790.9193       9.0759909      9.076          9.076          747.62364    
        86   0             -655.18957      24471.56       30356.761      24101.802      18956.118     -677.23054      3883.7126      789.15431      9.0759909      9.076          9.076          747.62364    
        87   0             -655.2231       25982.415      32057.085      26007.043      19883.117     -1947.1232      3938.3294      796.17688      9.0759909      9.076          9.076          747.62364    
        88   0             -655.24961      26894.031      33081.901      27179.073      20421.117     -2803.445       3949.8717      806.26128      9.0759909      9.076          9.076          747.62364    
        89   0             -655.27532      27298.292      33510.538      27695.272      20689.067     -2938.445       3864.2386      829.32898      9.0759909      9.076          9.076          747.62364    
        90   0             -655.30216      27684.513      33941.985      28162.998      20948.556     -2995.449       3727.5923      893.74702      9.0759909      9.076          9.076          747.62364    
        91   0             -655.33328      28038.678      34386.434      28560.531      21169.069     -2902.9354      3523.7258      1088.8725      9.0759909      9.076          9.076          747.62364    
        92   0             -655.37526      28570.026      35119.335      29086.196      21504.547     -2646.3806      3163.2724      1458.0154      9.0759909      9.076          9.076          747.62364    
        93   0             -655.41815      29236.52       36047.173      29676.667      21985.721     -2234.6956      2771.1422      1807.1349      9.0759909      9.076          9.076          747.62364    
        94   0             -655.46694      30279.395      37399.538      30574.357      22864.29      -1784.05        2380.2435      2124.6336      9.0759909      9.076          9.076          747.62364    
        95   0             -655.52385      31838.423      39296.424      31897.45       24321.394     -1367.7582      2143.9607      2411.9001      9.0759909      9.076          9.076          747.62364    
        96   0             -655.58814      34082.475      41881.649      33785.208      26580.568     -1100.285       2275.804       2680.3162      9.0759909      9.076          9.076          747.62364    
        97   0             -655.65463      37184.563      45292.721      36381.962      29879.005     -1163.3277      2957.6694      2895.3166      9.0759909      9.076          9.076          747.62364    
        98   0             -655.7077       40685.95       49005.567      39326.752      33725.529     -1669.9613      3878.6887      2981.8065      9.0759909      9.076          9.076          747.62364    
        99   0             -655.74503      43856.881      52289.385      42059.525      37221.734     -2418.8682      4224.9258      2919.9252      9.0759909      9.076          9.076          747.62364    
       100   0             -655.77852      45218.203      53719.227      43367.715      38567.668     -2691.814       3327.7081      2790.9319      9.0759909      9.076          9.076          747.62364    
       101   0             -655.81083      45643.899      54166.711      43923.447      38841.538     -2603.945       2761.9601      2745.9289      9.0759909      9.076          9.076          747.62364    
       102   0             -655.84155      46509.621      54946.032      44766.326      39816.506     -2967.6426      2811.9141      2687.3011      9.0759909      9.076          9.076          747.62364    
       103   0             -655.87261      44555.216      53096.584      43219.518      37349.547     -1873.1281      1978.774       2636.3072      9.0759909      9.076          9.076          747.62364    
       104   0             -655.90669      47052.412      55385.267      45380.034      40391.935     -2672.3474      2520.3833      2555.5099      9.0759909      9.076          9.076          747.62364    
       105   0             -655.93424      46592.457      54951.947      44970.748      39854.677     -2086.1265      2424.7926      2451.8862      9.0759909      9.076          9.076          747.62364    
       106   0             -655.95964      47423.572      55787.769      45726.352      40756.595     -1558.4724      2210.8345      2368.0209      9.0759909      9.076          9.076          747.62364    
       107   0             -655.98531      47705.259      56072.168      45999.045      41044.564     -1031.9825      2066.7499      2250.7055      9.0759909      9.076          9.076          747.62364    
       108   0             -656.01207      48698.961      57057.586      47000.12       42039.177     -545.87343      1743.7232      2152.5144      9.0759909      9.076          9.076          747.62364    
       109   0             -656.04008      49438.23       57787.696      47847.253      42679.742     -290.76348      1511.6389      2027.6938      9.0759909      9.076          9.076          747.62364    
       110   0             -656.06972      50603.878      58948.321      49189.239      43674.074     -253.74224      1230.2801      1918.3281      9.0759909      9.076          9.076          747.62364    
       111   0             -656.10314      51610.606      59971.212      50477.719      44382.888     -523.33419      1168.153       1798.9919      9.0759909      9.076          9.076          747.62364    
       112   0             -656.14101      53002.971      61423.207      52100.321      45485.384     -681.9925       1174.594       1730.6107      9.0759909      9.076          9.076          747.62364    
       113   0             -656.18025      53257.881      61752.878      52466.731      45554.034     -1146.4976      1394.0206      1605.8253      9.0759909      9.076          9.076          747.62364    
       114   0             -656.21988      55575.569      64194.234      54669.08       47863.394     -946.46812      409.42687      1616.038       9.0759909      9.076          9.076          747.62364    
       115   0             -656.26673      55405.038      64126.702      54384.375      47704.037     -1852.9987      233.61791      1459.5472      9.0759909      9.076          9.076          747.62364    
       116   0             -656.31335      57668.806      66550.124      56396.282      50060.013     -1728.4196     -965.13586      1458.2535      9.0759909      9.076          9.076          747.62364    
       117   0             -656.35963      59491.334      68493.127      57890.189      52090.686     -1930.2228     -1386.1339      1458.7137      9.0759909      9.076          9.076          747.62364    
       118   0             -656.40572      61636.851      70731.063      59590.851      54588.639     -2157.0659     -1066.2235      1509.4865      9.0759909      9.076          9.076          747.62364    
       119   0             -656.44736      64150.618      73294.197      61561.893      57595.763     -2279.9894     -228.34477      1641.9151      9.0759909      9.076          9.076          747.62364    
       120   0             -656.48505      65830.672      74971.194      62865.017      59655.806     -2363.2998      164.30549      1794.5998      9.0759909      9.076          9.076          747.62364    
       121   0             -656.52923      67235.981      76328.021      64109.737      61270.184     -2101.9123     -439.81784      1908.8         9.0759909      9.076          9.076          747.62364    
       122   0             -656.58127      68566.344      77527.205      65351.507      62820.32      -1780.6905     -1023.9444      1946.1529      9.0759909      9.076          9.076          747.62364    
       123   0             -656.63907      70691.544      79500.984      67576.277      64997.371     -623.32752     -2417.0215      1939.8513      9.0759909      9.076          9.076          747.62364    
       124   0             -656.69275      71611.619      80249.718      68558.341      66026.797     -387.60647     -2993.6939      1895.8034      9.0759909      9.076          9.076          747.62364    
       125   0             -656.74343      73766.9        82266.822      70808.699      68225.18       553.01705     -3953.7937      1880.4319      9.0759909      9.076          9.076          747.62364    
       126   0             -656.79179      74972.375      83321.606      71960.099      69635.421      467.43838     -4039.0423      1898.6151      9.0759909      9.076          9.076          747.62364    
       127   0             -656.83897      77050.627      85267.749      73907.822      71976.311      739.38451     -3882.9311      1985.4451      9.0759909      9.076          9.076          747.62364    
       128   0             -656.88199      78300.412      86375.638      74911.346      73614.25       606.63904     -3358.0536      2132.4535      9.0759909      9.076          9.076          747.62364    
       129   0             -656.91868      79796.679      87729.718      76279.846      75380.472      1305.3989     -3560.2148      2225.6228      9.0759909      9.076          9.076          747.62364    
       130   0             -656.95374      80340.362      88083.73       76653.226      76284.13       1167.7786     -3503.5013      2334.6848      9.0759909      9.076          9.076          747.62364    
       131   0             -656.9893       82532.432      90138.054      78811.166      78648.075      2224.2096     -4059.643       2374.088       9.0759909      9.076          9.076          747.62364    
       132   0             -657.02739      81804.452      89116.128      77812.273      78484.955      953.42156     -3851.3087      2523.74        9.0759909      9.076          9.076          747.62364    
       133   0             -657.06667      86070.218      93307.263      82102.731      82800.661      2988.5507     -4825.9929      2451.726       9.0759909      9.076          9.076          747.62364    
       134   0             -657.10372      85542.14       92492.201      81346.556      82787.661      1950.8841     -4879.5783      2636.8391      9.0759909      9.076          9.076          747.62364    
       135   0             -657.1366       87616.932      94455.621      83378.459      85016.715      2197.3106     -5359.7959      2539.4764      9.0759909      9.076          9.076          747.62364    
       136   0             -657.16885      86478.995      92989.737      82199.779      84247.469      852.831       -5398.6084      2604.3464      9.0759909      9.076          9.076          747.62364    
       137   0             -657.20344      91219.919      97778.477      87064.113      88817.166      1317.6592     -6343.7894      2252.6582      9.0759909      9.076          9.076          747.62364    
       138   0             -657.23742      90745.164      96974.917      86619.868      88640.707      508.87938     -5960.3939      2202.4886      9.0759909      9.076          9.076          747.62364    
       139   0             -657.2662       92148.675      98236.411      87881.351      90328.264      115.42735     -6721.2834      1839.6051      9.0759909      9.076          9.076          747.62364    
       140   0             -657.2898       91108.327      96989.715      87014.283      89320.983      2028.722      -5411.6062      1760.2309      9.0759909      9.076          9.076          747.62364    
       141   0             -657.31615      94799.678      100618.98      90533.914      93246.143      81.479054     -6477.8448      1473.1908      9.0759909      9.076          9.076          747.62364    
       142   0             -657.34065      94148.886      99778.324      90082.311      92586.024      1018.4407     -5930.9485      1269.1671      9.0759909      9.076          9.076          747.62364    
       143   0             -657.36417      96188.605      101712.45      92230.348      94623.022      1552.7979     -5680.9739      966.85264      9.0759909      9.076          9.076          747.62364    
       144   0             -657.38758      95531.801      100883.87      91805.412      93906.117      1515.7964     -5374.9295      871.17735      9.0759909      9.076          9.076          747.62364    
       145   0             -657.41197      98720.929      103981.48      95212.09       96969.216      2053.9571     -5131.7737      466.31599      9.0759909      9.076          9.076          747.62364    
       146   0             -657.43676      97691.833      102756.92      94555.615      95762.966      2316.2233     -4660.0897      374.41616      9.0759909      9.076          9.076          747.62364    
       147   0             -657.4625       101021.38      105952.41      98308.045      98803.68       2735.6334     -4625.3186     -76.72371       9.0759909      9.076          9.076          747.62364    
       148   0             -657.48962      99422.006      104122.47      97320.004      96823.54       3514.9651     -4240.1747     -132.64283      9.0759909      9.076          9.076          747.62364    
       149   0             -657.51943      104561.56      109059.99      103166.02      101458.66      4017.9957     -4462.6275     -645.84424      9.0759909      9.076          9.076          747.62364    
       150   0             -657.54646      103257.32      107619.14      102398.11      99754.711      4626.9773     -4490.3858     -595.45967      9.0759909      9.076          9.076          747.62364    
       151   0             -657.57001      103601.51      107839.04      102990.38      99975.102      5245.543      -4282.5738     -583.70027      9.0759909      9.076          9.076          747.62364    
       152   0             -657.59344      104732.05      108876.75      104371.24      100948.15      4844.9936     -4683.7797     -682.28929      9.0759909      9.076          9.076          747.62364    
       153   0             -657.61635      105275.62      109278.46      105190.76      101357.63      6130.0137     -4039.6168     -642.49199      9.0759909      9.076          9.076          747.62364    
       154   0             -657.63918      105518.38      109492.58      105592.22      101470.34      5859.2738     -4704.1423     -620.85915      9.0759909      9.076          9.076          747.62364    
       155   0             -657.66084      107128.32      110967.75      107396.46      103020.77      6639.8472     -3910.0115     -640.32728      9.0759909      9.076          9.076          747.62364    
       156   0             -657.68203      106482.23      110384.09      106773.61      102289         5906.4495     -5039.0635     -462.14562      9.0759909      9.076          9.076          747.62364    
       157   0             -657.70539      108311.5       112083.16      108765.1       104086.24      6614.2997     -4186.7305     -451.51811      9.0759909      9.076          9.076          747.62364    
       158   0             -657.72904      108684.04      112471.26      109148.59      104432.28      6101.6792     -4585.6236     -345.75313      9.0759909      9.076          9.076          747.62364    
       159   0             -657.75493      110387.43      114074.87      110956.77      106130.65      6313.8563     -3986.6003     -301.53042      9.0759909      9.076          9.076          747.62364    
       160   0             -657.78129      110629.19      114374.22      111163.86      106349.49      5235.7625     -4589.163      -213.75815      9.0759909      9.076          9.076          747.62364    
       161   0             -657.80909      112663.77      116255.9       113411.96      108323.44      5534.3732     -3898.78       -269.20309      9.0759909      9.076          9.076          747.62364    
       162   0             -657.83398      113355.76      116926.01      114263.43      108877.84      5036.8073     -4234.2922     -239.45838      9.0759909      9.076          9.076          747.62364    
       163   0             -657.8605       115953.12      119251.83      117424.7       111182.84      6243.0708     -3393.3078     -333.22223      9.0759909      9.076          9.076          747.62364    
       164   0             -657.88197      115584.84      118978.66      117110.15      110665.72      5157.6135     -4353.8015     -106.52977      9.0759909      9.076          9.076          747.62364    
       165   0             -657.90882      118054.62      121178.77      120133.07      112852         6667.8685     -3351.0488      26.947917      9.0759909      9.076          9.076          747.62364    
       166   0             -657.93259      118023.12      121143.21      119978.96      112947.2       5738.0021     -3986.1117      433.23168      9.0759909      9.076          9.076          747.62364    
       167   0             -657.95515      119841.63      122739.55      122070.38      114714.97      7529.2707     -2701.2466      653.65106      9.0759909      9.076          9.076          747.62364    
       168   0             -657.97879      120212.61      123013.47      122274.6       115349.75      6751.5504     -3485.7694      1045.5064      9.0759909      9.076          9.076          747.62364    
       169   0             -658.00076      120378         123235.02      122294.91      115604.07      8274.1617     -2412.8716      1319.0936      9.0759909      9.076          9.076          747.62364    
       170   0             -658.02152      122379.34      124940.84      124306.56      117890.63      6623.7388     -4052.521       1844.7124      9.0759909      9.076          9.076          747.62364    
       171   0             -658.04572      122695.28      125280.8       124401.56      118403.47      7473.7282     -3248.8943      2224.2271      9.0759909      9.076          9.076          747.62364    
       172   0             -658.05195      121635.61      124491.53      123155.36      117259.94      9689.4506     -1490.9736      2198.7523      9.0759909      9.076          9.076          747.62364    
       173   0             -658.07874      122545.17      125448.83      123857.2       118329.48      10526.08      -1045.2273      2703.1775      9.0759909      9.076          9.076          747.62364    
       174   0             -658.08667      123377.13      126049.86      124697.33      119384.2       8443.1928     -2412.6106      2909.738       9.0759909      9.076          9.076          747.62364    
       175   0             -658.10838      123698.43      126526.78      124738.38      119830.13      8440.6423     -1570.5207      3242.2697      9.0759909      9.076          9.076          747.62364    
       176   0             -658.11973      123678.59      126864.69      124518.65      119652.43      11266.796     -148.60387      3362.3822      9.0759909      9.076          9.076          747.62364    
       177   0             -658.13543      124299.11      127604.79      124851.94      120440.61      12023.556     -121.38462      3650.6484      9.0759909      9.076          9.076          747.62364    
       178   0             -658.14947      124376.36      127481.38      124775.37      120872.33      9921.0013     -841.3875       3758.0442      9.0759909      9.076          9.076          747.62364    
       179   0             -658.1652       124502.54      127892.93      124693.46      120921.22      10058.236      321.03815      3919.3132      9.0759909      9.076          9.076          747.62364    
       180   0             -658.18069      125854.54      129347.88      125878.08      122337.65      10802.651     -399.25748      4175.0021      9.0759909      9.076          9.076          747.62364    
       181   0             -658.19751      125202.31      128893.78      124791.61      121921.55      10695.781      160.68089      4128.0317      9.0759909      9.076          9.076          747.62364    
       182   0             -658.21215      126295.5       130044.58      125906.72      122935.21      9516.0224      507.48305      4278.03        9.0759909      9.076          9.076          747.62364    
       183   0             -658.22932      125849.3       129878.98      124966.08      122702.84      10458.867      495.79202      4153.6496      9.0759909      9.076          9.076          747.62364    
       184   0             -658.24614      126438.6       130512.91      125404.52      123398.37      9412.6294      462.67205      4319.4354      9.0759909      9.076          9.076          747.62364    
       185   0             -658.26407      126562.61      130942.14      125259.77      123485.91      9815.8611      822.13474      4124.2437      9.0759909      9.076          9.076          747.62364    
       186   0             -658.2847       127370         131724.33      125967.79      124417.87      8720.7832      463.86242      4395.4213      9.0759909      9.076          9.076          747.62364    
       187   0             -658.30797      127492.21      132146.95      125821.66      124508.02      8586.6319      759.07803      4181.4942      9.0759909      9.076          9.076          747.62364    
       188   0             -658.33494      128444.39      133059.1       126757.42      125516.64      7634.565       270.52783      4378.9161      9.0759909      9.076          9.076          747.62364    
       189   0             -658.3624       128859.67      133782.8       126895.34      125900.87      7383.6734      817.89496      3985.632       9.0759909      9.076          9.076          747.62364    
       190   0             -658.38853      129601.2       134401.29      127600.5       126801.82      6401.144       393.43305      4394.8184      9.0759909      9.076          9.076          747.62364    
       191   0             -658.41434      130395.26      135423.23      128199.96      127562.59      6202.1395      641.84028      4162.8213      9.0759909      9.076          9.076          747.62364    
       192   0             -658.43996      131116.51      136142.39      128836.69      128370.44      5678.8245      406.31211      4414.3799      9.0759909      9.076          9.076          747.62364    
       193   0             -658.46684      132069.72      137339.81      129604.39      129264.95      5800.1769      799.36327      4130.4363      9.0759909      9.076          9.076          747.62364    
       194   0             -658.49499      132840.88      138048.79      130334.84      130139         5350.0458      436.2792       4609.7982      9.0759909      9.076          9.076          747.62364    
       195   0             -658.52287      133988.68      139529.91      131287.87      131148.25      5855.133       1181.4915      4135.0506      9.0759909      9.076          9.076          747.62364    
       196   0             -658.55091      134715.98      140200.73      131987.57      131959.64      5446.0278      896.53919      4633.0292      9.0759909      9.076          9.076          747.62364    
       197   0             -658.57869      136021.76      141817.26      133141.92      133106.11      5986.8376      1778.9273      4161.5362      9.0759909      9.076          9.076          747.62364    
       198   0             -658.60719      136787.27      142505.09      133883.11      133973.59      5530.4691      1346.2982      4819.2225      9.0759909      9.076          9.076          747.62364    
       199   0             -658.63614      138341.73      144425         135274.97      135325.23      6301.1688      2405.6415      4281.426       9.0759909      9.076          9.076          747.62364    
       200   0             -658.66702      139266.62      145304.46      136124.13      136371.26      6035.5982      1847.8974      5035.2885      9.0759909      9.076          9.076          747.62364    
       201   0             -658.69962      141079.07      147536.15      137735.65      137965.42      7157.5667      3040.3851      4526.8409      9.0759909      9.076          9.076          747.62364    
       202   0             -658.73416      142188.43      148588.59      138726.24      139250.44      7179.2152      2184.7414      5360.9528      9.0759909      9.076          9.076          747.62364    
       203   0             -658.7662       143864.53      150657.5       140209.51      140726.56      8247.2511      3245.8366      5038.6455      9.0759909      9.076          9.076          747.62364    
       204   0             -658.79624      145118.53      151917.39      141362.64      142075.57      8320.7302      2528.3106      5731.076       9.0759909      9.076          9.076          747.62364    
       205   0             -658.82645      146755.67      154114.9       142758.54      143393.57      8867.6107      3859.0998      5311.2529      9.0759909      9.076          9.076          747.62364    
       206   0             -658.85659      147991.83      155339.8       143868.62      144767.07      8001.7251      2348.8262      6372.9946      9.0759909      9.076          9.076          747.62364    
       207   0             -658.88681      149425.52      157454.4       144932.44      145889.73      8056.7719      3493.1958      6056.9865      9.0759909      9.076          9.076          747.62364    
       208   0             -658.91243      150393.03      158400.27      145644.56      147134.28      7341.2758      1983.6316      6830.2715      9.0759909      9.076          9.076          747.62364    
       209   0             -658.9351       151322.27      160031.25      146147.99      147787.57      7460.707       3455.7903      6378.8479      9.0759909      9.076          9.076          747.62364    
       210   0             -658.95555      152288.86      160965.58      146889.94      149011.06      7024.2687      2509.8534      6836.1051      9.0759909      9.076          9.076          747.62364    
       211   0             -658.97173      152633.12      161740.84      146857.31      149301.22      6809.1011      3008.9883      6786.8881      9.0759909      9.076          9.076          747.62364    
       212   0             -658.98564      153740.68      162570.32      147875.88      150775.83      6657.0756      2070.8616      6909.5231      9.0759909      9.076          9.076          747.62364    
       213   0             -659.0013       153865.3       163226.7       147606.46      150762.75      6450.5228      2746.0463      6703.83        9.0759909      9.076          9.076          747.62364    
       214   0             -659.01544      154614.19      163997.08      148154.83      151690.66      6223.3198      2520.0888      6798.2482      9.0759909      9.076          9.076          747.62364    
       215   0             -659.02804      154823.32      164770.42      147968.25      151731.28      6083.2114      2768.5686      6450.0147      9.0759909      9.076          9.076          747.62364    
       216   0             -659.04282      155825.08      165520.57      148910.97      153043.71      5786.2912      2667.258       6682.5387      9.0759909      9.076          9.076          747.62364    
       217   0             -659.05604      156027.66      166095.95      148789.75      153197.28      5590.3096      2304.1648      6609.0181      9.0759909      9.076          9.076          747.62364    
       218   0             -659.06827      157207.44      167002.07      149951         154669.26      5350.8402      3285.3372      6683.3395      9.0759909      9.076          9.076          747.62364    
       219   0             -659.08185      157249.75      167454.94      149709.98      154584.33      5120.711       2562.4161      6381.6063      9.0759909      9.076          9.076          747.62364    
       220   0             -659.09641      158180.06      168282.81      150572.44      155684.94      4868.4579      3230.7663      6312.7964      9.0759909      9.076          9.076          747.62364    
       221   0             -659.1091       158242.09      168588.96      150308.06      155829.23      4320.573       2325.9583      6041.2517      9.0759909      9.076          9.076          747.62364    
       222   0             -659.12593      159548.12      169988.15      151640.5       157015.72      3806.7104      2374.3944      6154.5844      9.0759909      9.076          9.076          747.62364    
       223   0             -659.14036      161372.35      171537.01      153732.47      158847.56      4236.3169      3479.8252      6126.0377      9.0759909      9.076          9.076          747.62364    
       224   0             -659.15729      161779.55      172009.52      153995.27      159333.85      2424.4715      1790.3513      6392.7865      9.0759909      9.076          9.076          747.62364    
       225   0             -659.17136      163112.07      173885.45      155423.95      160026.82      1912.9146      2914.8625      5835.7184      9.0759909      9.076          9.076          747.62364    
       226   0             -659.18816      164759.83      175398.13      157261.54      161619.82      1355.6621      2520.4376      6055.7236      9.0759909      9.076          9.076          747.62364    
       227   0             -659.19701      165169.6       175091.1       157725.61      162692.1       1231.2013      992.92311      6672.5086      9.0759909      9.076          9.076          747.62364    
       228   0             -659.20828      165268.95      175079.21      158171.81      162555.83      1009.1287      2290.2912      5728.724       9.0759909      9.076          9.076          747.62364    
       229   0             -659.22831      166517.22      175886.73      160085.24      163579.69      135.97615      2764.4554      5631.9033      9.0759909      9.076          9.076          747.62364    
       230   0             -659.24169      168405.86      177150.06      162497.93      165569.58     -523.6453       941.99848      6655.3655      9.0759909      9.076          9.076          747.62364    
       231   0             -659.25291      169946.52      178953.77      164795.15      166090.64     -311.09033      1029.0719      5852.2953      9.0759909      9.076          9.076          747.62364    
       232   0             -659.27134      170928.22      179322.05      166717.7       166744.9      -906.19448      651.82481      5862.9243      9.0759909      9.076          9.076          747.62364    
       233   0             -659.29259      171082.13      178202.66      167746.16      167297.56     -2028.9048      58.288973      6725.5655      9.0759909      9.076          9.076          747.62364    
       234   0             -659.31294      171077.32      177655.11      168756.04      166820.8      -2497.2749      575.80053      6582.0233      9.0759909      9.076          9.076          747.62364    
       235   0             -659.33237      171599.61      177873.92      170002.17      166922.73     -2656.5575      580.80476      6658.465       9.0759909      9.076          9.076          747.62364    
       236   0             -659.35127      172189.67      178539.49      170836.86      167192.67     -2596.7185      649.20856      6741.4994      9.0759909      9.076          9.076          747.62364    
       237   0             -659.3688       172704.74      179589.83      171129.91      167394.5      -2287.5539      1096.7686      6629.857       9.0759909      9.076          9.076          747.62364    
       238   0             -659.38618      173428.42      181017.86      171219.06      168048.32     -1864.8872      1546.9786      6609.9044      9.0759909      9.076          9.076          747.62364    
       239   0             -659.40071      173892.48      181725.86      171418.63      168532.95     -1820.8109      1881.0827      6264.0778      9.0759909      9.076          9.076          747.62364    
       240   0             -659.41324      175056.22      183164.88      171699.03      170304.77     -1208.6022      1354.4571      6696.2997      9.0759909      9.076          9.076          747.62364    
       241   0             -659.42983      175386.25      183606.5       172244.16      170308.09     -1651.9375      2158.0499      5582.376       9.0759909      9.076          9.076          747.62364    
       242   0             -659.44588      176565.98      184941.38      172813.87      171942.68     -1236.6581      2075.0517      5670.9148      9.0759909      9.076          9.076          747.62364    
       243   0             -659.46091      177052.53      185547.53      173930.95      171679.1      -1975.2743      3335.2542      4284.042       9.0759909      9.076          9.076          747.62364    
       244   0             -659.48066      178205.12      187031.82      174708.6       172874.94     -1687.5324      3371.7787      3815.4381      9.0759909      9.076          9.076          747.62364    
       245   0             -659.4856       178894.7       188001.33      174641.44      174041.32     -898.717        2505.0832      4053.3335      9.0759909      9.076          9.076          747.62364    
       246   0             -659.50073      180308.4       188673.24      176683.25      175568.71     -1944.8798      1997.6094      4211.379       9.0759909      9.076          9.076          747.62364    
       247   0             -659.51763      180633.5       189907.05      177150.64      174842.81     -2059.4244      3177.7754      2526.2935      9.0759909      9.076          9.076          747.62364    
       248   0             -659.53043      181713.37      192109.86      176801.47      176228.77     -364.28682      2817.7836      2388.8705      9.0759909      9.076          9.076          747.62364    
       249   0             -659.54853      182834.31      193531.17      177719.85      177251.9      -313.6882       2607.5499      2001.7186      9.0759909      9.076          9.076          747.62364    
       250   0             -659.55197      182840.47      193116.88      178459.25      176945.27     -1263.3024      3240.5233      1733.5562      9.0759909      9.076          9.076          747.62364    
       251   0             -659.56044      184995.44      194456.83      180931.03      179598.46     -1693.138       2691.0466      1559.7265      9.0759909      9.076          9.076          747.62364    
       252   0             -659.57573      186497.16      196620.57      182143.78      180727.13     -1553.5126      2086.8618      1049.8156      9.0759909      9.076          9.076          747.62364    
       253   0             -659.58249      185646.87      197284.57      180656.36      178999.69     -993.01044      2211.2687      791.39285      9.0759909      9.076          9.076          747.62364    
       254   0             -659.58531      185878.08      197603.27      180573.17      179457.79     -402.54774      1752.0543      1060.7702      9.0759909      9.076          9.076          747.62364    
       255   0             -659.59156      186431.06      197820.74      181708.23      179764.2      -736.26294      4056.8998      405.56408      9.0759909      9.076          9.076          747.62364    
       256   0             -659.6039       187524.56      199334.65      182918.67      180320.37     -243.37322      3180.9215     -227.17512      9.0759909      9.076          9.076          747.62364    
       257   0             -659.60786      188159.35      200219.7       182910.06      181348.29      441.36826      806.20704     -209.31807      9.0759909      9.076          9.076          747.62364    
       258   0             -659.6112       188705.89      201078.4       183450.29      181588.99      105.41093     -292.53565     -848.52028      9.0759909      9.076          9.076          747.62364    
       259   0             -659.61596      188788.25      201764.11      183505.78      181094.86     -197.34527      1134.2562     -1090.3171      9.0759909      9.076          9.076          747.62364    
       260   0             -659.61966      189246.82      201274.45      184578.44      181887.55     -299.89226      1033.9129     -633.02674      9.0759909      9.076          9.076          747.62364    
       261   0             -659.62264      189564.74      201843.76      184536.26      182314.21      742.92853      1844.5345     -1300.4464      9.0759909      9.076          9.076          747.62364    
       262   0             -659.62628      189666.49      202229.87      185226.85      181542.73      829.36366      2190.654      -2125.6297      9.0759909      9.076          9.076          747.62364    
       263   0             -659.63243      190195         203013.51      185657.86      181913.63      1546.7566      1737.9973     -2413.1451      9.0759909      9.076          9.076          747.62364    
       264   0             -659.63557      190665.88      202973.54      185959.02      183065.09      1653.1504      920.06261     -2068.9822      9.0759909      9.076          9.076          747.62364    
       265   0             -659.63757      190828.9       202818.53      186638.55      183029.62      867.72078      618.63055     -2188.7278      9.0759909      9.076          9.076          747.62364    
       266   0             -659.63986      191297         204175.59      186736.94      182978.47      1029.7923     -622.11807     -2839.9525      9.0759909      9.076          9.076          747.62364    
       267   0             -659.6447       192068.43      204534.55      187887.66      183783.07      1104.3194     -749.5055      -3390.9313      9.0759909      9.076          9.076          747.62364    
       268   0             -659.64986      192271.4       204634.18      188223.28      183956.75      1745.4993      1287.2491     -3629.2006      9.0759909      9.076          9.076          747.62364    
       269   0             -659.65336      192551.76      203476.71      189594.44      184584.13      2309.1519      152.94571     -3386.9406      9.0759909      9.076          9.076          747.62364    
       270   0             -659.65838      193036.44      204341.64      189413.68      185354.01      4250.8012     -503.32503     -3783.3465      9.0759909      9.076          9.076          747.62364    
       271   0             -659.66613      193479.26      205640.56      189931.2       184866.01      4400.9461      598.39781     -5075.289       9.0759909      9.076          9.076          747.62364    
       272   0             -659.67518      194797.64      206799.99      191624.62      185968.31      4278.7979     -402.64369     -5496.4027      9.0759909      9.076          9.076          747.62364    
       273   0             -659.67711      195196.94      206624.05      192161.92      186804.85      4557.9136     -1312.6455     -4870.1771      9.0759909      9.076          9.076          747.62364    
       274   0             -659.67867      195486.7       206081.32      193553.65      186825.14      3867.5279     -1157.1029     -4696.6722      9.0759909      9.076          9.076          747.62364    
       275   0             -659.68577      197185.74      208315.02      195165.06      188077.14      4924.7707      652.20913     -5112.8524      9.0759909      9.076          9.076          747.62364    
       276   0             -659.69572      198675.81      209052.15      196907.33      190067.96      5753.708      -1857.5125     -5412.4821      9.0759909      9.076          9.076          747.62364    
       277   0             -659.70454      199208.82      209787.59      197792.86      190046.01      6464.0684     -2050.0693     -6587.1751      9.0759909      9.076          9.076          747.62364    
       278   0             -659.71157      199609.91      209687.45      198233.94      190908.33      8003.3089     -598.76978     -7007.3381      9.0759909      9.076          9.076          747.62364    
       279   0             -659.71466      200055.2       208732.07      199420.3       192013.21      8125.4478     -2217.3317     -6810.0026      9.0759909      9.076          9.076          747.62364    
       280   0             -659.71718      200638.9       209902.06      199711.75      192302.9       8026.8767     -2324.9114     -7335.9671      9.0759909      9.076          9.076          747.62364    
       281   0             -659.71858      200875.09      210216.13      200377.15      192031.98      7416.8898     -1213.4347     -7725.9746      9.0759909      9.076          9.076          747.62364    
       282   0             -659.72087      201443.93      210155.25      201057.54      193119.01      7732.6984     -1007.0838     -7674.7638      9.0759909      9.076          9.076          747.62364    
       283   0             -659.72255      201643.07      209222.11      201956.62      193750.47      7395.9137     -2041.9504     -7717.5157      9.0759909      9.076          9.076          747.62364    
       284   0             -659.7247       201827.46      209844.56      201480.54      194157.27      7660.9144     -1515.4469     -7888.8236      9.0759909      9.076          9.076          747.62364    
       285   0             -659.7261       201915.03      209961.12      201570.52      194213.45      7374.4791      120.30595     -8307.5305      9.0759909      9.076          9.076          747.62364    
       286   0             -659.72767      202286.09      209120.84      202521.76      195215.68      7133.5276     -795.05139     -8406.0804      9.0759909      9.076          9.076          747.62364    
       287   0             -659.72912      202773.12      209612.37      202957.06      195749.92      7285.2973     -1356.5638     -8259.8255      9.0759909      9.076          9.076          747.62364    
       288   0             -659.73013      202956.73      209911.46      203352.66      195606.07      6822.8933     -314.12228     -8516.3151      9.0759909      9.076          9.076          747.62364    
       289   0             -659.73111      203432.32      210192.49      203461.24      196643.24      6969.889       121.03275     -8729.9253      9.0759909      9.076          9.076          747.62364    
       290   0             -659.73247      204023.17      209822.88      204137.9       198108.73      6842.9457      178.95534     -8827.9112      9.0759909      9.076          9.076          747.62364    
       291   0             -659.73395      204200.18      209548.23      204868.23      198184.09      6311.5858      781.26568     -8563.397       9.0759909      9.076          9.076          747.62364    
       292   0             -659.73498      204665.01      210023.02      204722.24      199249.76      6849.0104      681.79043     -8169.0794      9.0759909      9.076          9.076          747.62364    
       293   0             -659.73776      205589.43      209072.98      205753.97      201941.33      6301.7658     -359.91533     -9267.9816      9.0759909      9.076          9.076          747.62364    
       294   0             -659.74544      206158.07      208878.45      206169.52      203426.25      5420.0087      1864.7448     -10817.592      9.0759909      9.076          9.076          747.62364    
       295   0             -659.75653      207148.3       208956.92      206876.73      205611.25      5370.8546      3466.223      -10305.888      9.0759909      9.076          9.076          747.62364    
       296   0             -659.76887      207946.16      209184.76      207637.22      207016.51      5024.2147      3600.7486     -10378.736      9.0759909      9.076          9.076          747.62364    
       297   0             -659.77912      208642.76      209732.82      208584.9       207610.57      4254.1141      2110.212      -11372.437      9.0759909      9.076          9.076          747.62364    
       298   0             -659.78651      209542         210943.43      209376.42      208306.16      4230.653       1901.1135     -11026.72       9.0759909      9.076          9.076          747.62364    
       299   0             -659.79043      209803.04      212253.23      209553.62      207602.27      4188.6671      3324.4567     -11124.733      9.0759909      9.076          9.076          747.62364    
       300   0             -659.79425      210516.01      213131.28      210363.55      208053.19      4446.3001      2512.4269     -10716.765      9.0759909      9.076          9.076          747.62364    
       301   0             -659.80022      211323.51      213760.46      211705.94      208504.14      3981.3737      2128.2783     -12286.106      9.0759909      9.076          9.076          747.62364    
       302   0             -659.8065       211732.52      214018.75      212175.25      209003.56      4362.1693      1257.3223     -12429.763      9.0759909      9.076          9.076          747.62364    
       303   0             -659.81281      212249.31      214877.52      212681.51      209188.9       4794.5321      1435.6079     -11922.786      9.0759909      9.076          9.076          747.62364    
       304   0             -659.82002      212597.6       215136.46      213309.25      209347.08      5017.311       1818.1316     -12350.254      9.0759909      9.076          9.076          747.62364    
       305   0             -659.82528      213199.22      215073.08      214173.96      210350.61      5696.996       10.517084     -12623.538      9.0759909      9.076          9.076          747.62364    
       306   0             -659.83166      213626.62      215857.85      214771.27      210250.74      6106.7452      412.5338      -13229.216      9.0759909      9.076          9.076          747.62364    
       307   0             -659.83793      213457.71      216520.54      214563.14      209289.45      6086.2807      2339.2716     -13466.454      9.0759909      9.076          9.076          747.62364    
       308   0             -659.8431       213431.44      216066.58      214418.85      209808.89      6674.2477      999.58544     -12938.833      9.0759909      9.076          9.076          747.62364    
       309   0             -659.85104      213471.52      216204.7       214312.57      209897.3       6801.5833      786.96213     -13152.445      9.0759909      9.076          9.076          747.62364    
       310   0             -659.85598      213895.03      216896.43      214928.22      209860.44      6162.7126      1729.3854     -13887.325      9.0759909      9.076          9.076          747.62364    
       311   0             -659.8601       214432.28      216560.02      215723.68      211013.14      5773.6435      461.97945     -13941.213      9.0759909      9.076          9.076          747.62364    
       312   0             -659.86877      214367.44      217122.53      215416.07      210563.72      5683.6243      846.62116     -13716.868      9.0759909      9.076          9.076          747.62364    
       313   0             -659.87316      214274.82      217752.07      215017.65      210054.75      5538.5868      1653.1892     -13874.731      9.0759909      9.076          9.076          747.62364    
       314   0             -659.87748      213976.67      217476.3       214392.85      210060.87      5194.0879      1178.0815     -14116.154      9.0759909      9.076          9.076          747.62364    
       315   0             -659.88533      213912.77      216610.44      214151.94      210975.93      4343.2028     -340.08937     -13579.178      9.0759909      9.076          9.076          747.62364    
       316   0             -659.89512      214031.32      216770.77      214190.67      211132.53      3150.6179      186.77198     -13315.281      9.0759909      9.076          9.076          747.62364    
       317   0             -659.8986       213887.87      217052.47      214065.54      210545.58      2797.0925      1506.0395     -13905.473      9.0759909      9.076          9.076          747.62364    
       318   0             -659.90213      213495.07      216890.99      213490.37      210103.85      2966.286       91.674395     -13729.818      9.0759909      9.076          9.076          747.62364    
       319   0             -659.90979      213022.59      217025.6       212658.32      209383.86      2749.7967     -20.166833     -13615.38       9.0759909      9.076          9.076          747.62364    
       320   0             -659.91579      213043.63      216272.48      212929.12      209929.28      1766.7679      1459.1058     -13894.864      9.0759909      9.076          9.076          747.62364    
       321   0             -659.92178      212440.72      214803.16      212438.21      210080.8       1018.1644      579.81796     -13850.649      9.0759909      9.076          9.076          747.62364    
       322   0             -659.93157      211704.94      214386.01      211396.37      209332.44      1097.3552     -745.55696     -13527.898      9.0759909      9.076          9.076          747.62364    
       323   0             -659.93493      211809.68      214924.65      211503.53      209000.86      1132.8247      785.74107     -13846.722      9.0759909      9.076          9.076          747.62364    
       324   0             -659.93907      211865.08      215501.56      211393.04      208700.64      1634.2856     -544.21144     -13836.737      9.0759909      9.076          9.076          747.62364    
       325   0             -659.94489      211729.09      215575.96      211315.3       208296         1309.2034     -528.99249     -14411.186      9.0759909      9.076          9.076          747.62364    
       326   0             -659.94767      211607.68      214614.9       211352.6       208855.54      972.72676     -63.213278     -14076.214      9.0759909      9.076          9.076          747.62364    
       327   0             -659.9496       211189.45      213998.82      210788.44      208781.1       895.94181     -268.26845     -13835.489      9.0759909      9.076          9.076          747.62364    
       328   0             -659.95321      211070.8       213655.91      210215.23      209341.27      1369.0325     -2694.6831     -13211.332      9.0759909      9.076          9.076          747.62364    
       329   0             -659.95852      210966.97      213474.61      209992.89      209433.4       1424.103      -1995.6595     -13471.87       9.0759909      9.076          9.076          747.62364    
       330   0             -659.96122      211068.15      213264.39      210502.25      209437.82      1175.3818     -252.19154     -13875.95       9.0759909      9.076          9.076          747.62364    
       331   0             -659.96358      211520.77      213204.49      211058.42      210299.41      1490.4395     -1941.2374     -13687.355      9.0759909      9.076          9.076          747.62364    
       332   0             -659.97128      212041.63      213511.21      211213.85      211399.83      2154.3751     -3524.2227     -14118.523      9.0759909      9.076          9.076          747.62364    
       333   0             -659.98798      212213.33      212878.78      210988.06      212773.16      2512.5078     -3224.5983     -14130.794      9.0759909      9.076          9.076          747.62364    
       334   0             -660.00846      212138.31      211463.6       210591.01      214360.31      2726.03       -3621.429      -13367.315      9.0759909      9.076          9.076          747.62364    
       335   0             -660.02669      211862.19      211215.46      210190.01      214181.1       2408.9954     -3244.2545     -14163.612      9.0759909      9.076          9.076          747.62364    
       336   0             -660.03263      212087.65      211309.3       210596.81      214356.85      2049.277      -3311.1822     -14135.488      9.0759909      9.076          9.076          747.62364    
       337   0             -660.03707      212048.22      212110.82      210831.04      213202.82      1417.9139     -1653.5617     -15146.458      9.0759909      9.076          9.076          747.62364    
       338   0             -660.04149      212313.75      212053.11      211276.28      213611.87      1528.3341     -3251.4089     -14457.425      9.0759909      9.076          9.076          747.62364    
       339   0             -660.04697      212735.01      211379.76      212576.07      214249.18      411.58757     -808.45041     -13982.786      9.0759909      9.076          9.076          747.62364    
       340   0             -660.05444      212978.18      211267.55      213731.77      213935.22     -774.27916     -791.77803     -13394.908      9.0759909      9.076          9.076          747.62364    
       341   0             -660.06438      213173.47      211007.98      215077.02      213435.42     -727.68722     -2629.383      -13947.422      9.0759909      9.076          9.076          747.62364    
       342   0             -660.0772       213164.32      209875.79      216289.25      213327.91     -774.28347     -1211.393      -13665.769      9.0759909      9.076          9.076          747.62364    
       343   0             -660.09279      213185.93      208717.49      217486.13      213354.17     -1034.2736     -1080.5153     -13189.102      9.0759909      9.076          9.076          747.62364    
       344   0             -660.11016      213221.95      208198.03      218456.76      213011.05     -1436.515      -1340.9323     -13348.427      9.0759909      9.076          9.076          747.62364    
       345   0             -660.12748      213299.3       208149.47      219010.02      212738.42     -1307.4852     -1459.3125     -12995.788      9.0759909      9.076          9.076          747.62364    
       346   0             -660.14317      213140.55      208727.64      218735.61      211958.41     -861.95589     -926.01484     -13258.538      9.0759909      9.076          9.076          747.62364    
       347   0             -660.15241      213272.86      208620.97      218552.5       212645.1       61.276851     -2899.8239     -12410.833      9.0759909      9.076          9.076          747.62364    
       348   0             -660.16288      213070.95      209050.37      217436.27      212726.21      1041.3045     -3484.9188     -11711.703      9.0759909      9.076          9.076          747.62364    
       349   0             -660.17108      212601.62      208765.76      217097.45      211941.65      510.70374     -1827.729      -12172.905      9.0759909      9.076          9.076          747.62364    
       350   0             -660.18131      212427.91      207581.39      217061.62      212640.72      400.00948     -1640.8788     -11972.842      9.0759909      9.076          9.076          747.62364    
       351   0             -660.18702      212940.65      208350.5       216680.33      213791.11      1410.9516     -3345.4189     -10261.692      9.0759909      9.076          9.076          747.62364    
       352   0             -660.19384      213204.29      210202.74      215674.05      213736.1       2216.7556     -3236.751      -9510.445       9.0759909      9.076          9.076          747.62364    
       353   0             -660.20045      212859.83      209154.62      216071.19      213353.68      884.65463     -2731.5732     -9840.3422      9.0759909      9.076          9.076          747.62364    
       354   0             -660.20768      212975.29      207887.46      216983.75      214054.66      340.22071     -3711.5437     -10073.916      9.0759909      9.076          9.076          747.62364    
       355   0             -660.21632      213798.66      208536.68      217800.05      215059.24      1935.5776     -3985.4441     -9701.1004      9.0759909      9.076          9.076          747.62364    
       356   0             -660.22974      214175.75      209387.03      218256.46      214883.77      3222.0019     -4054.6779     -10045.54       9.0759909      9.076          9.076          747.62364    
       357   0             -660.24974      213507.45      208306.33      218563.21      213652.82      1912.0055     -5435.367      -10359.521      9.0759909      9.076          9.076          747.62364    
       358   0             -660.26448      213375.66      208117.2       218269.43      213740.34      1195.2598     -6278.7376     -10616.211      9.0759909      9.076          9.076          747.62364    
       359   0             -660.27181      213566.07      208457.49      217999.74      214240.99      1672.3712     -4816.224      -11310.503      9.0759909      9.076          9.076          747.62364    
       360   0             -660.28049      213370.74      209266.63      217669.14      213176.46      1300.8549     -2771.36       -10742.776      9.0759909      9.076          9.076          747.62364    
       361   0             -660.29119      213847.91      210215.15      216968.34      214360.24      958.12876     -4622.369      -8962.0774      9.0759909      9.076          9.076          747.62364    
[...]
       420   0             -661.26531      242170.03      239080.23      236996.2       250433.65     -15477.828     -6953.228      -9316.9067      9.076          9.076          9.076          747.62439    
       421   0             -661.27997      242285.32      239719.06      236883.04      250253.86     -15091.144     -6959.4296     -8747.5186      9.076          9.076          9.076          747.62439    
       422   0             -661.29782      242435.42      237384         237427.93      252494.33     -14398.252     -8658.7349     -12015.553      9.076          9.076          9.076          747.62439    
       423   0             -661.31318      242320.06      237579.27      237087.37      252293.54     -14246.491     -8888.45       -11986.957      9.076          9.076          9.076          747.62439    
       424   0             -661.32905      241909.53      239834.86      236052.76      249840.96     -14383.771     -7720.3067     -8319.8607      9.076          9.076          9.076          747.62439    
       425   0             -661.34722      241569.4       240148.62      235671.06      248888.53     -14412.698     -7714.7836     -8023.2975      9.076          9.076          9.076          747.62439    
       426   0             -661.36295      241346.36      237420.68      235835.64      250782.77     -14308.175     -9044.9027     -10867.876      9.076          9.076          9.076          747.62439    
       427   0             -661.38499      240634.24      237519.97      234529.92      249852.85     -14925.503     -9516.2974     -10615.353      9.076          9.076          9.076          747.62439    
       428   0             -661.42442      239446.16      240970.09      231688.11      245680.28     -16128.438     -7800.1181     -6633.0844      9.076          9.076          9.076          747.62439    
       429   0             -661.46447      238373.08      241990.41      229397.08      243731.76     -17339.012     -7455.6373     -6381.8469      9.076          9.076          9.076          747.62439    
       430   0             -661.51537      237226.47      241396.21      227394.87      242888.32     -18433.532     -7756.5763     -7805.1169      9.076          9.076          9.076          747.62439    
       431   0             -661.56217      236132.29      240558.51      225906.37      241931.98     -19435.396     -7977.5064     -8353.3818      9.076          9.076          9.076          747.62439    
       432   0             -661.60565      235050.66      238929.29      225668.26      240554.43     -20486.375     -8551.378      -7800.7477      9.076          9.076          9.076          747.62439    
       433   0             -661.64698      234067.21      236283.85      226698.65      239219.14     -21520.175     -9935.1185     -6779.7771      9.076          9.076          9.076          747.62439    
       434   0             -661.6923       233391.58      234366.15      226963.19      238845.4      -21870.435     -11252.539     -5571.3303      9.076          9.076          9.076          747.62439    
       435   0             -661.72514      233255.05      233863.63      226356.07      239545.44     -21623.761     -10519.528     -4720.0132      9.076          9.076          9.076          747.62439    
       436   0             -661.75434      233484.42      231694.53      227333.93      241424.81     -21599.992     -11608.307     -4042.5621      9.076          9.076          9.076          747.62439    
       437   0             -661.76837      234382.18      234282.36      227734.88      241129.32     -20924.705     -7641.421      -5544.894       9.076          9.076          9.076          747.62439    
       438   0             -661.79231      235599.81      237289.12      225511.76      243998.55     -18479.759     -7978.5118     -5010.2138      9.076          9.076          9.076          747.62439    
       439   0             -661.80546      235595.58      231693.35      229863.97      245229.41     -19163.33      -10916.067     -2888.9389      9.076          9.076          9.076          747.62439    
       440   0             -661.81728      236129.77      231700.27      231138.83      245550.21     -21815.295     -12548.316     -3350.3939      9.076          9.076          9.076          747.62439    
       441   0             -661.83872      237679.15      234238.88      230061.78      248736.79     -22361.584     -11525.62      -4156.5386      9.076          9.076          9.076          747.62439    
       442   0             -661.85325      238467.83      231000.77      232770.19      251632.54     -20696.682     -12117.607     -1240.299       9.076          9.076          9.076          747.62439    
       443   0             -661.87344      239774.06      233318.33      230853.83      255150.03     -19785.659     -13388.786      967.1255       9.076          9.076          9.076          747.62439    
       444   0             -661.91051      240709.66      236651.01      227952.49      257525.5      -22321.66      -13497.556     -265.7123       9.076          9.076          9.076          747.62439    
       445   0             -661.94746      241672.47      232744.41      230795.03      261477.96     -23753.673     -14716.963     -481.28948      9.076          9.076          9.076          747.62439    
       446   0             -661.97002      242790.63      232663.69      231510.32      264197.87     -22046.395     -16428.579      13.002221      9.076          9.076          9.076          747.62439    
       447   0             -661.99233      243551.58      235340.64      232380.74      262933.35     -21534.456     -17050.715     -937.12992      9.076          9.076          9.076          747.62439    
       448   0             -662.00566      243187.75      235537.54      232504.08      261521.63     -23641.76      -16444.062     -2081.2298      9.076          9.076          9.076          747.62439    
       449   0             -662.02935      243379.94      230908.35      233010.04      266221.42     -22635.059     -20405.742     -245.05984      9.076          9.076          9.076          747.62439    
       450   0             -662.06446      243476.58      229852.53      233013.59      267563.63     -22059.587     -22638.648      118.57584      9.076          9.076          9.076          747.62439    
       451   0             -662.10996      243367.61      232401.46      232514.12      265187.24     -22381.981     -23363.375     -1120.322       9.076          9.076          9.076          747.62439    
       452   0             -662.14814      243137.35      231249.26      232313.98      265848.82     -21680.55      -25229.025     -648.86298      9.076          9.076          9.076          747.62439    
       453   0             -662.18314      242852.4       230125.79      232323.72      266107.7      -21481.341     -24945.701      0.57898139     9.076          9.076          9.076          747.62439    
       454   0             -662.21147      243108.96      235436.81      229626.91      264263.17     -20818.913     -23278.474      398.96653      9.076          9.076          9.076          747.62439    
       455   0             -662.23293      243594.64      233122.24      234473.09      263188.59     -22572.664     -22961.976      3535.2174      9.076          9.076          9.076          747.62439    
       456   0             -662.26579      244069.04      238992.03      230265.75      262949.35     -23112.41      -24850.694      5484.7723      9.076          9.076          9.076          747.62439    
       457   0             -662.28504      244005.55      247266.07      222823.15      261927.44     -21318.819     -26775.12       3766.5181      9.076          9.076          9.076          747.62439    
       458   0             -662.31401      243854.57      251156.58      220317.94      260089.2      -20914.321     -26618.047      3690.4155      9.076          9.076          9.076          747.62439    
       459   0             -662.36153      243399.75      250517.47      219527.05      260154.73     -21727.747     -26734.421      6345.2109      9.076          9.076          9.076          747.62439    
       460   0             -662.41422      242862.26      252039.19      215909.84      260637.77     -21588.988     -28641.076      8442.3178      9.076          9.076          9.076          747.62439    
       461   0             -662.46574      242300.45      252788.99      213915.19      260197.18     -21042.896     -29536.851      9112.4436      9.076          9.076          9.076          747.62439    
       462   0             -662.51033      241829.33      251260.81      214780.95      259446.25     -20651.676     -28844.802      8998.874       9.076          9.076          9.076          747.62439    
       463   0             -662.54692      241538.32      248337.61      217079.63      259197.71     -20378.768     -27942.893      8641.2055      9.076          9.076          9.076          747.62439    
       464   0             -662.58182      241488.91      244657.25      220509.61      259299.85     -20618.792     -27216.84       8412.3308      9.076          9.076          9.076          747.62439    
       465   0             -662.61865      241642.64      243810.45      221770.16      259347.31     -21385.884     -28119.498      8146.24        9.076          9.076          9.076          747.62439    
       466   0             -662.63588      242025.49      239828.23      228069.79      258178.47     -21774.174     -27020.824      9577.3028      9.076          9.076          9.076          747.62439    
       467   0             -662.66063      242327.54      238917.52      230099.28      257965.83     -21729.584     -26763.937      9385.8568      9.076          9.076          9.076          747.62439    
       468   0             -662.66968      242332.44      241927.36      226213.99      258855.97     -21731.899     -28202.676      8398.2385      9.076          9.076          9.076          747.62439    
       469   0             -662.67976      242698.54      244780.16      224174.4       259141.08     -23380.966     -31747.238      9163.7686      9.076          9.076          9.076          747.62439    
       470   0             -662.71321      243244.04      242246.37      229925.56      257560.19     -24043.937     -31179.174      9437.8302      9.076          9.076          9.076          747.62439    
       471   0             -662.72613      243453.31      241814.66      230216.41      258328.85     -22445.827     -29016.785      8241.062       9.076          9.076          9.076          747.62439    
       472   0             -662.73879      244058.96      239981.1       232495.23      259700.57     -20719.684     -26680.471      9394.1673      9.076          9.076          9.076          747.62439    
       473   0             -662.76276      244155.95      239699.47      234281.36      258487.02     -21776.272     -27583.023      10968.115      9.076          9.076          9.076          747.62439    
       474   0             -662.78103      243912.29      241974.09      233130.66      256632.12     -23259.036     -29286.628      9111.2132      9.076          9.076          9.076          747.62439    
       475   0             -662.78925      243999.39      244028.45      231969.95      255999.75     -24307.91      -32434.34       9119.6999      9.076          9.076          9.076          747.62439    
       476   0             -662.80898      244253.12      243551.39      231939.41      257268.56     -23281.894     -32237.523      9057.5945      9.076          9.076          9.076          747.62439    
       477   0             -662.81846      244251.71      242020.05      233438.72      257296.35     -22075.699     -29653.443      8287.6443      9.076          9.076          9.076          747.62439    
       478   0             -662.82555      244231.02      239296.67      236273.11      257123.28     -21589.757     -27716.793      10237.32       9.076          9.076          9.076          747.62439    
       479   0             -662.84204      244059.46      241474.84      234173.71      256529.84     -21704.593     -29346.1        11807.333      9.076          9.076          9.076          747.62439    
       480   0             -662.85344      244016.66      243950.04      232376.05      255723.88     -21609.052     -30283.15       9121.5226      9.076          9.076          9.076          747.62439    
       481   0             -662.86627      244193.81      245634.81      231203.97      255742.65     -22419.788     -32222.613      7103.7235      9.076          9.076          9.076          747.62439    
       482   0             -662.88102      244392.23      242842.06      233144.92      257189.71     -21685.146     -31933.17       8862.3984      9.076          9.076          9.076          747.62439    
       483   0             -662.89836      244568.9       240202.53      234356.49      259147.68     -19773.646     -30434.248      9933.4795      9.076          9.076          9.076          747.62439    
       484   0             -662.90907      244324.56      242003.99      233398.8       257570.88     -20179.394     -31131.677      8914.5324      9.076          9.076          9.076          747.62439    
       485   0             -662.91838      244124.03      245203.98      231839.35      255328.75     -21436.842     -33498.283      9653.1813      9.076          9.076          9.076          747.62439    
       486   0             -662.93171      244452.74      245593.78      231976.56      255787.89     -20771.218     -32017.354      10413.083      9.076          9.076          9.076          747.62439    
       487   0             -662.95151      244732.25      245255.18      232113.37      256828.21     -19518.714     -29996.979      9313.334       9.076          9.076          9.076          747.62439    
       488   0             -662.96249      244533.64      243398.59      233962.84      256239.48     -20209.487     -32036.181      9012.0552      9.076          9.076          9.076          747.62439    
       489   0             -662.96797      244556.98      242953.18      233743.65      256974.11     -21015.218     -35083.319      10323.17       9.076          9.076          9.076          747.62439    
       490   0             -662.97839      245039.49      244093.61      230567.26      260457.6      -20525.98      -35578.887      10010.129      9.076          9.076          9.076          747.62439    
       491   0             -662.99138      245368.45      242149.52      233731.77      260224.06     -19993.002     -32346.409      7854.1475      9.076          9.076          9.076          747.62439    
       492   0             -663.00311      245533.72      240268.26      237307.64      259025.28     -20349.251     -31418.027      8350.3437      9.076          9.076          9.076          747.62439    
       493   0             -663.00997      245430.9       242702.16      234173.06      259417.48     -20897.8       -34470.822      9954.4248      9.076          9.076          9.076          747.62439    
       494   0             -663.01278      245381.96      243829.74      233082.16      259233.99     -21061.247     -35587.52       9925.1687      9.076          9.076          9.076          747.62439    
       495   0             -663.01798      245445.76      240474.02      238337.04      257526.21     -20990.933     -33249.497      9187.545       9.076          9.076          9.076          747.62439    
       496   0             -663.02283      245669.97      238212.42      241426.38      257371.1      -21029.705     -31827.283      10338.954      9.076          9.076          9.076          747.62439    
       497   0             -663.03416      245932.9       242041.55      235908.71      259848.44     -21515.153     -33265.377      10349.01       9.076          9.076          9.076          747.62439    
       498   0             -663.04328      245943.76      242189.84      234921.18      260720.25     -22133.904     -35162.483      9969.7463      9.076          9.076          9.076          747.62439    
       499   0             -663.05513      245873.57      236824.34      240397         260399.38     -23110.352     -36738.482      11386.165      9.076          9.076          9.076          747.62439    
       500   0             -663.07011      245947.46      234037.12      242154.95      261650.29     -22663.596     -34964          11784.871      9.076          9.076          9.076          747.62439    
       501   0             -663.08033      246031.44      237014.95      238522.89      262556.47     -21918.027     -32394.714      9199.3107      9.076          9.076          9.076          747.62439    
Loop time of 0.792868 on 1 procs for 500 steps with 64 atoms

99.7% CPU use with 1 MPI tasks x no OpenMP threads

Minimization stats:
  Stopping criterion = max iterations
  Energy initial, next-to-last, final = 
     -653.439999864312  -663.070110127439  -663.080330156085
  Force two-norm initial, final = 0.00061932427 1.693535
  Force max component initial, final = 0.00013502438 0.8077791
  Final line search alpha, max atom move = 0.0081099294 0.0065510315
  Iterations, force evaluations = 500 608

MPI task timing breakdown:
Section |  min time  |  avg time  |  max time  |%varavg| %total
---------------------------------------------------------------
Pair    | 0.78313    | 0.78313    | 0.78313    |   0.0 | 98.77
Neigh   | 0.0018858  | 0.0018858  | 0.0018858  |   0.0 |  0.24
Comm    | 0.0026465  | 0.0026465  | 0.0026465  |   0.0 |  0.33
Output  | 0.0033016  | 0.0033016  | 0.0033016  |   0.0 |  0.42
Modify  | 0          | 0          | 0          |   0.0 |  0.00
Other   |            | 0.001907   |            |       |  0.24

Nlocal:             64 ave          64 max          64 min
Histogram: 1 0 0 0 0 0 0 0 0 0
Nghost:           1276 ave        1276 max        1276 min
Histogram: 1 0 0 0 0 0 0 0 0 0
Neighs:           6761 ave        6761 max        6761 min
Histogram: 1 0 0 0 0 0 0 0 0 0
FullNghs:        13522 ave       13522 max       13522 min
Histogram: 1 0 0 0 0 0 0 0 0 0

Total # of neighbors = 13522
Ave neighs/atom = 211.28125
Neighbor list builds = 4
Dangerous builds = 0
=========================================
Components of the Elastic Constant Tensor
=========================================
Elastic Constant C11all = -86788.4045622498 GPa
Elastic Constant C22all = 60909.1042312998 GPa
Elastic Constant C33all = -19435.1220719013 GPa
Elastic Constant C12all = 20787.5860844999 GPa
Elastic Constant C13all = 97291.2572987759 GPa
Elastic Constant C23all = 18019.6501957996 GPa
Elastic Constant C44all = -21799.59032691 GPa
Elastic Constant C55all = -60035.14270935 GPa
Elastic Constant C66all = -106785.66491187 GPa
Elastic Constant C14all = -10573.9886133175 GPa
Elastic Constant C15all = -120400.98937663 GPa
Elastic Constant C16all = 113440.042894297 GPa
Elastic Constant C24all = -135306.195639722 GPa
Elastic Constant C25all = 162098.160803725 GPa
Elastic Constant C26all = -108131.46111442 GPa
Elastic Constant C34all = 65980.9216888324 GPa
Elastic Constant C35all = -152392.427833697 GPa
Elastic Constant C36all = -134992.114221947 GPa
Elastic Constant C45all = 111268.888076614 GPa
Elastic Constant C46all = -47321.9528577435 GPa
Elastic Constant C56all = 45804.0071995775 GPa
=========================================
Average properties for a cubic crystal
=========================================
Bulk Modulus = 25209.1738617 GPa
Shear Modulus 1 = -62873.46598271 GPa
Shear Modulus 2 = -30235.4859969878 GPa
Poisson Ratio = 1.49914507926054
Lattice constant (Angstroms) = 9.07599999684796;
Total wall time: 0:00:09
