LAMMPS (23 Jun 2022)
Lattice spacing in x,y,z = 4.538 4.538 4.538
Created triclinic box = (-4.538 -4.538 -4.538) to (4.538 4.538 4.538) with tilt (0 0 0)
  1 by 1 by 1 MPI processor grid
Lattice spacing in x,y,z = 4.538 4.538 4.538
Created 32 atoms
  using lattice units in triclinic box = (-4.538 -4.538 -4.538) to (4.538 4.538 4.538) with tilt (0 0 0)
  create_atoms CPU = 0.000 seconds
Lattice spacing in x,y,z = 4.538 4.538 4.538
Created 32 atoms
  using lattice units in triclinic box = (-4.538 -4.538 -4.538) to (4.538 4.538 4.538) with tilt (0 0 0)
  create_atoms CPU = 0.000 seconds
Reading MEAM library file library_HfN.meam with DATE: 2015-02-12
Neighbor list info ...
  update every 1 steps, delay 0 steps, check yes
  max neighbors/atom: 2000, page size: 100000
  master list distance cutoff = 8.38
  ghost atom cutoff = 8.38
  2 neighbor lists, perpetual/occasional/extra = 2 0 0
  (1) pair meam, perpetual
      attributes: full, newton on
      pair build: full/nsq
      stencil: none
      bin: none
  (2) pair meam, perpetual, half/full from (1)
      attributes: half, newton on
      pair build: halffull/newton
      stencil: none
      bin: none
Setting up cg style minimization ...
  Unit style    : metal
  Current step  : 0
WARNING: Energy due to 3 extra global DOFs will be included in minimizer energies
Per MPI rank memory allocation (min/avg/max) = 10.24 | 10.24 | 10.24 Mbytes
   Step          Temp          PotEng         Press           Pxx            Pyy            Pzz            Pxy            Pxz            Pyz             Lx             Ly             Lz           Volume    
         0   0             -653.44        -0.004375024   -0.004375024   -0.004375024   -0.004375024    5.6725355e-20  8.5088032e-20  0              9.076          9.076          9.076          747.62439    
         1   0             -653.44        -4.8534509e-08 -4.8534509e-08 -4.8534509e-08 -4.8534509e-08  0             -2.1639006e-25 -8.6556022e-25  9.076          9.076          9.076          747.62439    
Loop time of 0.00286484 on 1 procs for 1 steps with 64 atoms

99.8% CPU use with 1 MPI tasks x no OpenMP threads

Minimization stats:
  Stopping criterion = force tolerance
  Energy initial, next-to-last, final = 
     -653.439999877045  -653.439999877045  -653.439999877036
  Force two-norm initial, final = 3.5360156e-06 3.9226934e-11
  Force max component initial, final = 2.0415196e-06 2.2647681e-11
  Final line search alpha, max atom move = 1 2.2647681e-11
  Iterations, force evaluations = 1 2

MPI task timing breakdown:
Section |  min time  |  avg time  |  max time  |%varavg| %total
---------------------------------------------------------------
Pair    | 0.0028091  | 0.0028091  | 0.0028091  |   0.0 | 98.06
Neigh   | 0          | 0          | 0          |   0.0 |  0.00
Comm    | 1.2871e-05 | 1.2871e-05 | 1.2871e-05 |   0.0 |  0.45
Output  | 0          | 0          | 0          |   0.0 |  0.00
Modify  | 0          | 0          | 0          |   0.0 |  0.00
Other   |            | 4.284e-05  |            |       |  1.50

Nlocal:             64 ave          64 max          64 min
Histogram: 1 0 0 0 0 0 0 0 0 0
Nghost:           1267 ave        1267 max        1267 min
Histogram: 1 0 0 0 0 0 0 0 0 0
Neighs:           6464 ave        6464 max        6464 min
Histogram: 1 0 0 0 0 0 0 0 0 0
FullNghs:        12928 ave       12928 max       12928 min
Histogram: 1 0 0 0 0 0 0 0 0 0

Total # of neighbors = 12928
Ave neighs/atom = 202
Neighbor list builds = 0
Dangerous builds = 0
Displacing atoms ...
System init for write_restart ...
Reading restart file ...
  restart file = 23 Jun 2022, LAMMPS = 23 Jun 2022
  restoring atom style atomic from restart
  triclinic box = (-4.538 -4.538 -4.538) to (4.538 4.538 4.538) with tilt (0 0 0)
  1 by 1 by 1 MPI processor grid
  pair style meam stores no restart info
  64 atoms
  read_restart CPU = 0.000 seconds
Reading MEAM library file library_HfN.meam with DATE: 2015-02-12
Changing box ...
  triclinic box = (-4.538 -4.538 -4.538) to (4.5379909 4.538 4.538) with tilt (0 0 0)
  triclinic box = (-4.538 -4.538 -4.538) to (4.5379909 4.538 4.538) with tilt (0 0 0)
  triclinic box = (-4.538 -4.538 -4.538) to (4.5379909 4.538 4.538) with tilt (0 0 0)
Neighbor list info ...
  update every 1 steps, delay 0 steps, check yes
  max neighbors/atom: 2000, page size: 100000
  master list distance cutoff = 8.38
  ghost atom cutoff = 8.38
  2 neighbor lists, perpetual/occasional/extra = 2 0 0
  (1) pair meam, perpetual
      attributes: full, newton on
      pair build: full/nsq
      stencil: none
      bin: none
  (2) pair meam, perpetual, half/full from (1)
      attributes: half, newton on
      pair build: halffull/newton
      stencil: none
      bin: none
Setting up cg style minimization ...
  Unit style    : metal
  Current step  : 1
Per MPI rank memory allocation (min/avg/max) = 10.2 | 10.2 | 10.2 Mbytes
   Step          Temp          PotEng         Press           Pxx            Pyy            Pzz            Pxy            Pxz            Pyz             Lx             Ly             Lz           Volume    
         1   0             -653.44         4.1993611      4.9899909      3.8040439      3.8040486      8.788331e-06   1.0254485e-05  6.6748372e-06  9.0759909      9.076          9.076          747.62364    
         2   0             -653.44         4.1992582      4.9898893      3.8039382      3.8039471      1.1748509e-06 -1.7838803e-06  1.4055406e-07  9.0759909      9.076          9.076          747.62364    
         3   0             -653.44         4.1991812      4.9898182      3.8038628      3.8038626      3.4578111e-06  1.0620174e-06 -8.3882106e-07  9.0759909      9.076          9.076          747.62364    
         4   0             -653.44         4.1991069      4.9897392      3.803791       3.8037905      1.629186e-06  -2.7364822e-08 -3.2047857e-07  9.0759909      9.076          9.076          747.62364    
         5   0             -653.44         4.1990753      4.9897086      3.8037595      3.8037579      1.1042457e-06 -7.8908923e-07 -3.812984e-07   9.0759909      9.076          9.076          747.62364    
         6   0             -653.44         4.1990514      4.9896854      3.8037353      3.8037334      8.0251579e-07 -1.109147e-06   1.1804108e-07  9.0759909      9.076          9.076          747.62364    
         7   0             -653.44         4.1990093      4.9896446      3.8036926      3.8036906      8.3352028e-07 -1.9026083e-06 -2.1775329e-07  9.0759909      9.076          9.076          747.62364    
         8   0             -653.44         4.1988861      4.9895262      3.8035676      3.8035645      2.7193626e-06 -3.8439593e-06 -1.5305397e-06  9.0759909      9.076          9.076          747.62364    
         9   0             -653.44         4.198385       4.9890492      3.8030548      3.8030509      8.631064e-06  -1.231935e-05  -2.8309004e-06  9.0759909      9.076          9.076          747.62364    
        10   0             -653.44         3.7990191      4.6143538      3.3909596      3.391744       0.0048563963  -0.0057298348  -0.00063187244  9.0759909      9.076          9.076          747.62364    
        11   0             -653.44013     -62.869762     -57.883057     -65.438142     -65.288086      0.81837304    -0.9397161     -0.11779998     9.0759909      9.076          9.076          747.62364    
        12   0             -653.44049     -243.74222     -227.46085     -252.17157     -251.59424      3.0374407     -3.458312      -0.45820499     9.0759909      9.076          9.076          747.62364    
        13   0             -653.44106     -538.73698     -504.14487     -556.67492     -555.39117      6.6817116     -7.5527109     -1.0528066      9.0759909      9.076          9.076          747.62364    
        14   0             -653.44183     -947.74042     -887.98309     -978.7529      -976.48526      11.774667     -13.22329      -1.9367152      9.0759909      9.076          9.076          747.62364    
        15   0             -653.4428      -1471.0675     -1379.4719     -1518.6347     -1515.096       18.348475     -20.478357     -3.1654213      9.0759909      9.076          9.076          747.62364    
        16   0             -653.44407     -2111.643      -1981.547      -2179.1787     -2174.2032      26.461096     -29.316613     -4.8958442      9.0759909      9.076          9.076          747.62364    
        17   0             -653.4465      -2895.3171     -2718.0787     -2987.0663     -2980.8062      36.341957     -39.665177     -7.828246       9.0759909      9.076          9.076          747.62364    
        18   0             -653.44929     -3073.6499     -2880.4344     -3173.7725     -3166.7429      37.024139     -40.762892     -5.7082091      9.0759909      9.076          9.076          747.62364    
        19   0             -653.45689     -3965.7294     -3704.5552     -4119.551      -4073.082       31.352261     -56.488368     -1.4676723      9.0759909      9.076          9.076          747.62364    
        20   0             -653.4637      -4970.5033     -4623.3572     -5166.9213     -5121.2315      34.805625     -67.429143     -8.366598       9.0759909      9.076          9.076          747.62364    
        21   0             -653.46925     -6120.8072     -5691.1785     -6371.4166     -6299.8264      38.398365     -80.429767     -10.896981      9.0759909      9.076          9.076          747.62364    
        22   0             -653.47652     -7514.6596     -6975.7591     -7831.101      -7737.1186      45.36415      -93.700122     -12.444976      9.0759909      9.076          9.076          747.62364    
        23   0             -653.47915     -7974.0308     -7390.4991     -8310.6847     -8220.9085      46.424761     -96.819126     -11.017743      9.0759909      9.076          9.076          747.62364    
        24   0             -653.48593     -10080.029     -9331.4812     -10530.242     -10378.365      53.390758     -112.94248     -10.007329      9.0759909      9.076          9.076          747.62364    
        25   0             -653.49687     -12523.25      -11585.946     -13086.316     -12897.489      64.264255     -84.511651     -15.397735      9.0759909      9.076          9.076          747.62364    
        26   0             -653.50242     -13378.146     -12373.968     -13970.861     -13789.609      67.027546     -63.866519     -26.829777      9.0759909      9.076          9.076          747.62364    
        27   0             -653.50631     -14736.295     -13628.179     -15394.998     -15185.709      64.952244     -2.6142586     -32.304567      9.0759909      9.076          9.076          747.62364    
        28   0             -653.5174      -17552.568     -16219.95      -18347.271     -18090.482      12.75829       299.2471      -33.016258      9.0759909      9.076          9.076          747.62364    
        29   0             -653.52134     -18106.178     -16718.552     -18926.748     -18673.233     -9.0663844      401.44203     -27.348421      9.0759909      9.076          9.076          747.62364    
        30   0             -653.52745     -20239.698     -18680.332     -21171.103     -20867.659     -131.00634      913.31776     -16.558699      9.0759909      9.076          9.076          747.62364    
        31   0             -653.53616     -22387.743     -20662.406     -23410.878     -23089.947     -325.535        1688.6095     -23.018104      9.0759909      9.076          9.076          747.62364    
        32   0             -653.54653     -23595.272     -21772.489     -24652.157     -24361.171     -521.32174      2518.5315     -51.066671      9.0759909      9.076          9.076          747.62364    
        33   0             -653.55749     -24510.864     -22600.444     -25603.24      -25328.909     -787.20183      3844.0423     -74.410988      9.0759909      9.076          9.076          747.62364    
        34   0             -653.57347     -24981.67      -22982.402     -26103.273     -25859.336     -1067.068       5496.0677     -96.333515      9.0759909      9.076          9.076          747.62364    
        35   0             -653.59818     -25006.962     -22907.956     -26166.777     -25946.153     -1354.7853      7385.2605     -121.95687      9.0759909      9.076          9.076          747.62364    
        36   0             -653.6325      -24529.62      -22313.573     -25762.262     -25513.025     -1632.8427      9236.8059     -147.02004      9.0759909      9.076          9.076          747.62364    
        37   0             -653.67569     -23501.952     -21140.249     -24882.904     -24482.702     -1886.4604      10677.443     -163.75696      9.0759909      9.076          9.076          747.62364    
        38   0             -653.72476     -21873.816     -19318.437     -23538.65      -22764.36      -2104.7127      11284.442     -162.83464      9.0759909      9.076          9.076          747.62364    
        39   0             -653.77396     -19577.362     -16751.539     -21742.272     -20238.275     -2280.5158      10646.167     -134.18138      9.0759909      9.076          9.076          747.62364    
        40   0             -653.81275     -16790.03      -13623.122     -19676.557     -17070.411     -2408.4408      8742.0834     -74.322079      9.0759909      9.076          9.076          747.62364    
        41   0             -653.83675     -14851.223     -11478.158     -18207.174     -14868.338     -2567.9543      7407.5297     -27.877605      9.0759909      9.076          9.076          747.62364    
        42   0             -653.85843     -14140.478     -10772.764     -17491.813     -14156.858     -2911.3771      7586.1641     -18.938754      9.0759909      9.076          9.076          747.62364    
        43   0             -653.87775     -13036.162     -9616.5198     -16521.242     -12970.723     -3303.5973      7041.5799      21.649445      9.0759909      9.076          9.076          747.62364    
        44   0             -653.89742     -12776.821     -9428.4285     -16062.91      -12839.124     -3919.3165      7372.5482      39.225283      9.0759909      9.076          9.076          747.62364    
        45   0             -653.91339     -11488.931     -8072.1216     -14887.262     -11507.409     -4087.5253      6229.3296      126.18543      9.0759909      9.076          9.076          747.62364    
        46   0             -653.93029     -11803.59      -8504.7299     -14774.26      -12131.78      -4585.0138      7042.7737      119.21314      9.0759909      9.076          9.076          747.62364    
        47   0             -653.94454     -10530.656     -7186.4911     -13437.877     -10967.601     -4214.1512      6064.6255      215.70857      9.0759909      9.076          9.076          747.62364    
        48   0             -653.96244     -11526.85      -8302.6417     -13859.479     -12418.429     -4912.6172      7783.3203      143.0119       9.0759909      9.076          9.076          747.62364    
        49   0             -653.97993     -9966.4366     -6662.2824     -12157.756     -11079.272     -4016.473       7208.8091      232.41281      9.0759909      9.076          9.076          747.62364    
        50   0             -654.00676     -10539.458     -7215.6786     -12498.074     -11904.622     -4856.3952      9351.7044      157.50191      9.0759909      9.076          9.076          747.62364    
        51   0             -654.03813     -10760.628     -7356.1744     -12710.121     -12215.587     -5787.0222      11614.879      102.93795      9.0759909      9.076          9.076          747.62364    
        52   0             -654.07839     -9925.2537     -6373.9041     -11975.604     -11426.253     -6258.1647      13358.122      91.61188       9.0759909      9.076          9.076          747.62364    
        53   0             -654.12672     -8622.6037     -4881.2261     -10867.719     -10118.866     -6772.6181      14789.866      83.546421      9.0759909      9.076          9.076          747.62364    
        54   0             -654.18164     -6950.2751     -2967.0992     -9522.3782     -8361.3479     -7502.7777      15715.677      67.025588      9.0759909      9.076          9.076          747.62364    
        55   0             -654.24382     -4524.2147     -202.64493     -7632.7888     -5737.2104     -8411.0291      15772.071      47.274599      9.0759909      9.076          9.076          747.62364    
        56   0             -654.3005      -2000.3951      2662.1813     -5623.6477     -3039.7188     -9232.807       15428.26       31.472367      9.0759909      9.076          9.076          747.62364    
        57   0             -654.35221      207.02338      5143.6396     -3733.2155     -789.3539      -9757.472       15296.627      32.739531      9.0759909      9.076          9.076          747.62364    
        58   0             -654.40369      2514.126       7696.5844     -1631.064       1476.8576     -9845.8259      15044.643      74.456792      9.0759909      9.076          9.076          747.62364    
        59   0             -654.45359      5311.13        10746.423      982.13866      4204.8286     -9290.4301      14176.554      188.19489      9.0759909      9.076          9.076          747.62364    
        60   0             -654.49203      8448.7033      14121.124      3918.5486      7306.4374     -8054.9066      12518.772      376.09587      9.0759909      9.076          9.076          747.62364    
        61   0             -654.51778      10674.219      16454.212      5983.5091      9584.9349     -7023.6612      11171.554      502.8705       9.0759909      9.076          9.076          747.62364    
        62   0             -654.54446      11045.65       16734.763      6302.6805      10099.506     -7105.8382      11282.789      441.63059      9.0759909      9.076          9.076          747.62364    
        63   0             -654.56517      13052.257      18716.123      8277.2089      12163.438     -5682.8174      9679.5369      582.47316      9.0759909      9.076          9.076          747.62364    
        64   0             -654.57991      11504.58       17017.616      6819.8813      10676.243     -6670.6027      10977.747      404.95365      9.0759909      9.076          9.076          747.62364    
        65   0             -654.59936      12887.629      18364.992      8241.9094      12055.987     -5409.9798      9556.4337      482.7516       9.0759909      9.076          9.076          747.62364    
        66   0             -654.61567      10601.591      15997.444      6068.2986      9739.0295     -6690.6792      10937.425      303.87042      9.0759909      9.076          9.076          747.62364    
        67   0             -654.63542      11813.479      17237.58       7337.4511      10865.406     -5517.2796      9356.7104      401.30395      9.0759909      9.076          9.076          747.62364    
        68   0             -654.65245      11371.086      16886.02       6922.5617      10304.677     -5751.177       9119.2153      394.07709      9.0759909      9.076          9.076          747.62364    
        69   0             -654.6674       12062.113      17626.476      7605.0814      10954.783     -5347.8186      8021.965       416.1904       9.0759909      9.076          9.076          747.62364    
        70   0             -654.68878      11632.456      17252.087      7195.348       10449.933     -5958.0827      7882.0163      413.93548      9.0759909      9.076          9.076          747.62364    
        71   0             -654.70056      10817.922      16503.491      6475.7117      9474.562      -6854.6139      8369.2285      425.65412      9.0759909      9.076          9.076          747.62364    
        72   0             -654.72021      10939.124      16668.334      6611.6721      9537.3673     -7479.7509      8106.0734      455.18608      9.0759909      9.076          9.076          747.62364    
        73   0             -654.74822      12538.425      18216.281      8145.6898      11253.302     -7449.4625      6672.8343      559.22842      9.0759909      9.076          9.076          747.62364    
        74   0             -654.77346      13450.008      19138.92       9095.4662      12115.639     -7853.4305      5908.4064      657.2957       9.0759909      9.076          9.076          747.62364    
        75   0             -654.80392      13654.241      19413.182      9441.279       12108.263     -8673.6259      5943.1019      711.97491      9.0759909      9.076          9.076          747.62364    
        76   0             -654.83423      14954.271      20678.211      11018.864      13165.737     -8388.8374      5275.6603      867.00398      9.0759909      9.076          9.076          747.62364    
        77   0             -654.86563      16338.758      22023.552      12833.938      14158.783     -7738.4134      4728.3905      989.24755      9.0759909      9.076          9.076          747.62364    
        78   0             -654.90225      17948.528      23624.103      15105.786      15115.694     -6524.4381      4283.1726      1053.5536      9.0759909      9.076          9.076          747.62364    
        79   0             -654.94341      18924.935      24592.683      16707.369      15474.752     -5476.3709      4161.6987      965.42351      9.0759909      9.076          9.076          747.62364    
        80   0             -654.9779       19989.036      25642.226      18158.91       16165.97      -4009.6229      3667.5023      947.10703      9.0759909      9.076          9.076          747.62364    
        81   0             -655.00973      20042.566      25663.831      18485.76       15978.106     -3154.0542      3900.492       853.3148       9.0759909      9.076          9.076          747.62364    
        82   0             -655.04249      20698.07       26315.324      19345.856      16433.029     -1878.8641      3733.8672      835.34063      9.0759909      9.076          9.076          747.62364    
        83   0             -655.07752      21313.372      26941.535      20152.063      16846.518     -845.11328      3732.8933      818.85206      9.0759909      9.076          9.076          747.62364    
        84   0             -655.11488      22093.277      27760.287      21143.044      17376.502     -189.0126       3786.9509      801.27655      9.0759909      9.076          9.076          747.62364    
        85   0             -655.15304      23151.445      28900.448      22458.078      18095.81      -80.628867      3833.5768      790.9193       9.0759909      9.076          9.076          747.62364    
        86   0             -655.18957      24471.56       30356.761      24101.802      18956.118     -677.23054      3883.7126      789.15431      9.0759909      9.076          9.076          747.62364    
        87   0             -655.2231       25982.415      32057.085      26007.043      19883.117     -1947.1232      3938.3294      796.17688      9.0759909      9.076          9.076          747.62364    
        88   0             -655.24961      26894.031      33081.901      27179.073      20421.117     -2803.445       3949.8717      806.26128      9.0759909      9.076          9.076          747.62364    
        89   0             -655.27532      27298.292      33510.538      27695.272      20689.067     -2938.445       3864.2386      829.32898      9.0759909      9.076          9.076          747.62364    
        90   0             -655.30216      27684.513      33941.985      28162.998      20948.556     -2995.449       3727.5923      893.74702      9.0759909      9.076          9.076          747.62364    
        91   0             -655.33328      28038.678      34386.434      28560.531      21169.069     -2902.9354      3523.7258      1088.8725      9.0759909      9.076          9.076          747.62364    
        92   0             -655.37526      28570.026      35119.335      29086.196      21504.547     -2646.3806      3163.2724      1458.0154      9.0759909      9.076          9.076          747.62364    
        93   0             -655.41815      29236.52       36047.173      29676.667      21985.721     -2234.6956      2771.1422      1807.1349      9.0759909      9.076          9.076          747.62364    
        94   0             -655.46694      30279.395      37399.538      30574.357      22864.29      -1784.05        2380.2435      2124.6336      9.0759909      9.076          9.076          747.62364    
        95   0             -655.52385      31838.423      39296.424      31897.45       24321.394     -1367.7582      2143.9607      2411.9001      9.0759909      9.076          9.076          747.62364    
        96   0             -655.58814      34082.475      41881.649      33785.208      26580.568     -1100.285       2275.804       2680.3162      9.0759909      9.076          9.076          747.62364    
        97   0             -655.65463      37184.563      45292.721      36381.962      29879.005     -1163.3277      2957.6694      2895.3166      9.0759909      9.076          9.076          747.62364    
        98   0             -655.7077       40685.95       49005.567      39326.752      33725.529     -1669.9613      3878.6887      2981.8065      9.0759909      9.076          9.076          747.62364    
        99   0             -655.74503      43856.881      52289.385      42059.525      37221.734     -2418.8682      4224.9258      2919.9252      9.0759909      9.076          9.076          747.62364    
       100   0             -655.77852      45218.203      53719.227      43367.715      38567.668     -2691.814       3327.7081      2790.9319      9.0759909      9.076          9.076          747.62364    
       101   0             -655.81083      45643.899      54166.711      43923.447      38841.538     -2603.945       2761.9601      2745.9289      9.0759909      9.076          9.076          747.62364    
       102   0             -655.84155      46509.621      54946.032      44766.326      39816.506     -2967.6426      2811.9141      2687.3011      9.0759909      9.076          9.076          747.62364    
       103   0             -655.87261      44555.216      53096.584      43219.518      37349.547     -1873.1281      1978.774       2636.3072      9.0759909      9.076          9.076          747.62364    
       104   0             -655.90669      47052.412      55385.267      45380.034      40391.935     -2672.3474      2520.3833      2555.5099      9.0759909      9.076          9.076          747.62364    
       105   0             -655.93424      46592.457      54951.947      44970.748      39854.677     -2086.1265      2424.7926      2451.8862      9.0759909      9.076          9.076          747.62364    
       106   0             -655.95964      47423.572      55787.769      45726.352      40756.595     -1558.4724      2210.8345      2368.0209      9.0759909      9.076          9.076          747.62364    
       107   0             -655.98531      47705.259      56072.168      45999.045      41044.564     -1031.9825      2066.7499      2250.7055      9.0759909      9.076          9.076          747.62364    
       108   0             -656.01207      48698.961      57057.586      47000.12       42039.177     -545.87343      1743.7232      2152.5144      9.0759909      9.076          9.076          747.62364    
       109   0             -656.04008      49438.23       57787.696      47847.253      42679.742     -290.76348      1511.6389      2027.6938      9.0759909      9.076          9.076          747.62364    
       110   0             -656.06972      50603.878      58948.321      49189.239      43674.074     -253.74224      1230.2801      1918.3281      9.0759909      9.076          9.076          747.62364    
       111   0             -656.10314      51610.606      59971.212      50477.719      44382.888     -523.33419      1168.153       1798.9919      9.0759909      9.076          9.076          747.62364    
       112   0             -656.14101      53002.971      61423.207      52100.321      45485.384     -681.9925       1174.594       1730.6107      9.0759909      9.076          9.076          747.62364    
       113   0             -656.18025      53257.881      61752.878      52466.731      45554.034     -1146.4976      1394.0206      1605.8253      9.0759909      9.076          9.076          747.62364    
       114   0             -656.21988      55575.569      64194.234      54669.08       47863.394     -946.46812      409.42687      1616.038       9.0759909      9.076          9.076          747.62364    
       115   0             -656.26673      55405.038      64126.702      54384.375      47704.037     -1852.9987      233.61791      1459.5472      9.0759909      9.076          9.076          747.62364    
       116   0             -656.31335      57668.806      66550.124      56396.282      50060.013     -1728.4196     -965.13586      1458.2535      9.0759909      9.076          9.076          747.62364    
       117   0             -656.35963      59491.334      68493.127      57890.189      52090.686     -1930.2228     -1386.1339      1458.7137      9.0759909      9.076          9.076          747.62364    
       118   0             -656.40572      61636.851      70731.063      59590.851      54588.639     -2157.0659     -1066.2235      1509.4865      9.0759909      9.076          9.076          747.62364    
       119   0             -656.44736      64150.618      73294.197      61561.893      57595.763     -2279.9894     -228.34477      1641.9151      9.0759909      9.076          9.076          747.62364    
       120   0             -656.48505      65830.672      74971.194      62865.017      59655.806     -2363.2998      164.30549      1794.5998      9.0759909      9.076          9.076          747.62364    
       121   0             -656.52923      67235.981      76328.021      64109.737      61270.184     -2101.9123     -439.81784      1908.8         9.0759909      9.076          9.076          747.62364    
       122   0             -656.58127      68566.344      77527.205      65351.507      62820.32      -1780.6905     -1023.9444      1946.1529      9.0759909      9.076          9.076          747.62364    
       123   0             -656.63907      70691.544      79500.984      67576.277      64997.371     -623.32752     -2417.0215      1939.8513      9.0759909      9.076          9.076          747.62364    
       124   0             -656.69275      71611.619      80249.718      68558.341      66026.797     -387.60647     -2993.6939      1895.8034      9.0759909      9.076          9.076          747.62364    
       125   0             -656.74343      73766.9        82266.822      70808.699      68225.18       553.01705     -3953.7937      1880.4319      9.0759909      9.076          9.076          747.62364    
       126   0             -656.79179      74972.375      83321.606      71960.099      69635.421      467.43838     -4039.0423      1898.6151      9.0759909      9.076          9.076          747.62364    
       127   0             -656.83897      77050.627      85267.749      73907.822      71976.311      739.38451     -3882.9311      1985.4451      9.0759909      9.076          9.076          747.62364    
       128   0             -656.88199      78300.412      86375.638      74911.346      73614.25       606.63904     -3358.0536      2132.4535      9.0759909      9.076          9.076          747.62364    
       129   0             -656.91868      79796.679      87729.718      76279.846      75380.472      1305.3989     -3560.2148      2225.6228      9.0759909      9.076          9.076          747.62364    
       130   0             -656.95374      80340.362      88083.73       76653.226      76284.13       1167.7786     -3503.5013      2334.6848      9.0759909      9.076          9.076          747.62364    
       131   0             -656.9893       82532.432      90138.054      78811.166      78648.075      2224.2096     -4059.643       2374.088       9.0759909      9.076          9.076          747.62364    
       132   0             -657.02739      81804.452      89116.128      77812.273      78484.955      953.42156     -3851.3087      2523.74        9.0759909      9.076          9.076          747.62364    
       133   0             -657.06667      86070.218      93307.263      82102.731      82800.661      2988.5507     -4825.9929      2451.726       9.0759909      9.076          9.076          747.62364    
       134   0             -657.10372      85542.14       92492.201      81346.556      82787.661      1950.8841     -4879.5783      2636.8391      9.0759909      9.076          9.076          747.62364    
       135   0             -657.1366       87616.932      94455.621      83378.459      85016.715      2197.3106     -5359.7959      2539.4764      9.0759909      9.076          9.076          747.62364    
       136   0             -657.16885      86478.995      92989.737      82199.779      84247.469      852.831       -5398.6084      2604.3464      9.0759909      9.076          9.076          747.62364    
       137   0             -657.20344      91219.919      97778.477      87064.113      88817.166      1317.6592     -6343.7894      2252.6582      9.0759909      9.076          9.076          747.62364    
       138   0             -657.23742      90745.164      96974.917      86619.868      88640.707      508.87938     -5960.3939      2202.4886      9.0759909      9.076          9.076          747.62364    
       139   0             -657.2662       92148.675      98236.411      87881.351      90328.264      115.42735     -6721.2834      1839.6051      9.0759909      9.076          9.076          747.62364    
       140   0             -657.2898       91108.327      96989.715      87014.283      89320.983      2028.722      -5411.6062      1760.2309      9.0759909      9.076          9.076          747.62364    
       141   0             -657.31615      94799.678      100618.98      90533.914      93246.143      81.479054     -6477.8448      1473.1908      9.0759909      9.076          9.076          747.62364    
       142   0             -657.34065      94148.886      99778.324      90082.311      92586.024      1018.4407     -5930.9485      1269.1671      9.0759909      9.076          9.076          747.62364    
       143   0             -657.36417      96188.605      101712.45      92230.348      94623.022      1552.7979     -5680.9739      966.85264      9.0759909      9.076          9.076          747.62364    
       144   0             -657.38758      95531.801      100883.87      91805.412      93906.117      1515.7964     -5374.9295      871.17735      9.0759909      9.076          9.076          747.62364    
       145   0             -657.41197      98720.929      103981.48      95212.09       96969.216      2053.9571     -5131.7737      466.31599      9.0759909      9.076          9.076          747.62364    
       146   0             -657.43676      97691.833      102756.92      94555.615      95762.966      2316.2233     -4660.0897      374.41616      9.0759909      9.076          9.076          747.62364    
       147   0             -657.4625       101021.38      105952.41      98308.045      98803.68       2735.6334     -4625.3186     -76.72371       9.0759909      9.076          9.076          747.62364    
       148   0             -657.48962      99422.006      104122.47      97320.004      96823.54       3514.9651     -4240.1747     -132.64283      9.0759909      9.076          9.076          747.62364    
       149   0             -657.51943      104561.56      109059.99      103166.02      101458.66      4017.9957     -4462.6275     -645.84424      9.0759909      9.076          9.076          747.62364    
       150   0             -657.54646      103257.32      107619.14      102398.11      99754.711      4626.9773     -4490.3858     -595.45967      9.0759909      9.076          9.076          747.62364    
       151   0             -657.57001      103601.51      107839.04      102990.38      99975.102      5245.543      -4282.5738     -583.70027      9.0759909      9.076          9.076          747.62364    
       152   0             -657.59344      104732.05      108876.75      104371.24      100948.15      4844.9936     -4683.7797     -682.28929      9.0759909      9.076          9.076          747.62364    
       153   0             -657.61635      105275.62      109278.46      105190.76      101357.63      6130.0137     -4039.6168     -642.49199      9.0759909      9.076          9.076          747.62364    
       154   0             -657.63918      105518.38      109492.58      105592.22      101470.34      5859.2738     -4704.1423     -620.85915      9.0759909      9.076          9.076          747.62364    
       155   0             -657.66084      107128.32      110967.75      107396.46      103020.77      6639.8472     -3910.0115     -640.32728      9.0759909      9.076          9.076          747.62364    
       156   0             -657.68203      106482.23      110384.09      106773.61      102289         5906.4495     -5039.0635     -462.14562      9.0759909      9.076          9.076          747.62364    
       157   0             -657.70539      108311.5       112083.16      108765.1       104086.24      6614.2997     -4186.7305     -451.51811      9.0759909      9.076          9.076          747.62364    
       158   0             -657.72904      108684.04      112471.26      109148.59      104432.28      6101.6792     -4585.6236     -345.75313      9.0759909      9.076          9.076          747.62364    
       159   0             -657.75493      110387.43      114074.87      110956.77      106130.65      6313.8563     -3986.6003     -301.53042      9.0759909      9.076          9.076          747.62364    
       160   0             -657.78129      110629.19      114374.22      111163.86      106349.49      5235.7625     -4589.163      -213.75815      9.0759909      9.076          9.076          747.62364    
       161   0             -657.80909      112663.77      116255.9       113411.96      108323.44      5534.3732     -3898.78       -269.20309      9.0759909      9.076          9.076          747.62364    
       162   0             -657.83398      113355.76      116926.01      114263.43      108877.84      5036.8073     -4234.2922     -239.45838      9.0759909      9.076          9.076          747.62364    
       163   0             -657.8605       115953.12      119251.83      117424.7       111182.84      6243.0708     -3393.3078     -333.22223      9.0759909      9.076          9.076          747.62364    
       164   0             -657.88197      115584.84      118978.66      117110.15      110665.72      5157.6135     -4353.8015     -106.52977      9.0759909      9.076          9.076          747.62364    
       165   0             -657.90882      118054.62      121178.77      120133.07      112852         6667.8685     -3351.0488      26.947917      9.0759909      9.076          9.076          747.62364    
       166   0             -657.93259      118023.12      121143.21      119978.96      112947.2       5738.0021     -3986.1117      433.23168      9.0759909      9.076          9.076          747.62364    
       167   0             -657.95515      119841.63      122739.55      122070.38      114714.97      7529.2707     -2701.2466      653.65106      9.0759909      9.076          9.076          747.62364    
       168   0             -657.97879      120212.61      123013.47      122274.6       115349.75      6751.5504     -3485.7694      1045.5064      9.0759909      9.076          9.076          747.62364    
       169   0             -658.00076      120378         123235.02      122294.91      115604.07      8274.1617     -2412.8716      1319.0936      9.0759909      9.076          9.076          747.62364    
       170   0             -658.02152      122379.34      124940.84      124306.56      117890.63      6623.7388     -4052.521       1844.7124      9.0759909      9.076          9.076          747.62364    
       171   0             -658.04572      122695.28      125280.8       124401.56      118403.47      7473.7282     -3248.8943      2224.2271      9.0759909      9.076          9.076          747.62364    
       172   0             -658.05195      121635.61      124491.53      123155.36      117259.94      9689.4506     -1490.9736      2198.7523      9.0759909      9.076          9.076          747.62364    
       173   0             -658.07874      122545.17      125448.83      123857.2       118329.48      10526.08      -1045.2273      2703.1775      9.0759909      9.076          9.076          747.62364    
       174   0             -658.08667      123377.13      126049.86      124697.33      119384.2       8443.1928     -2412.6106      2909.738       9.0759909      9.076          9.076          747.62364    
       175   0             -658.10838      123698.43      126526.78      124738.38      119830.13      8440.6423     -1570.5207      3242.2697      9.0759909      9.076          9.076          747.62364    
       176   0             -658.11973      123678.59      126864.69      124518.65      119652.43      11266.796     -148.60387      3362.3822      9.0759909      9.076          9.076          747.62364    
       177   0             -658.13543      124299.11      127604.79      124851.94      120440.61      12023.556     -121.38462      3650.6484      9.0759909      9.076          9.076          747.62364    
       178   0             -658.14947      124376.36      127481.38      124775.37      120872.33      9921.0013     -841.3875       3758.0442      9.0759909      9.076          9.076          747.62364    
       179   0             -658.1652       124502.54      127892.93      124693.46      120921.22      10058.236      321.03815      3919.3132      9.0759909      9.076          9.076          747.62364    
       180   0             -658.18069      125854.54      129347.88      125878.08      122337.65      10802.651     -399.25748      4175.0021      9.0759909      9.076          9.076          747.62364    
       181   0             -658.19751      125202.31      128893.78      124791.61      121921.55      10695.781      160.68089      4128.0317      9.0759909      9.076          9.076          747.62364    
       182   0             -658.21215      126295.5       130044.58      125906.72      122935.21      9516.0224      507.48305      4278.03        9.0759909      9.076          9.076          747.62364    
       183   0             -658.22932      125849.3       129878.98      124966.08      122702.84      10458.867      495.79202      4153.6496      9.0759909      9.076          9.076          747.62364    
       184   0             -658.24614      126438.6       130512.91      125404.52      123398.37      9412.6294      462.67205      4319.4354      9.0759909      9.076          9.076          747.62364    
       185   0             -658.26407      126562.61      130942.14      125259.77      123485.91      9815.8611      822.13474      4124.2437      9.0759909      9.076          9.076          747.62364    
       186   0             -658.2847       127370         131724.33      125967.79      124417.87      8720.7832      463.86242      4395.4213      9.0759909      9.076          9.076          747.62364    
       187   0             -658.30797      127492.21      132146.95      125821.66      124508.02      8586.6319      759.07803      4181.4942      9.0759909      9.076          9.076          747.62364    
       188   0             -658.33494      128444.39      133059.1       126757.42      125516.64      7634.565       270.52783      4378.9161      9.0759909      9.076          9.076          747.62364    
       189   0             -658.3624       128859.67      133782.8       126895.34      125900.87      7383.6734      817.89496      3985.632       9.0759909      9.076          9.076          747.62364    
       190   0             -658.38853      129601.2       134401.29      127600.5       126801.82      6401.144       393.43305      4394.8184      9.0759909      9.076          9.076          747.62364    
       191   0             -658.41434      130395.26      135423.23      128199.96      127562.59      6202.1395      641.84028      4162.8213      9.0759909      9.076          9.076          747.62364    
       192   0             -658.43996      131116.51      136142.39      128836.69      128370.44      5678.8245      406.31211      4414.3799      9.0759909      9.076          9.076          747.62364    
       193   0             -658.46684      132069.72      137339.81      129604.39      129264.95      5800.1769      799.36327      4130.4363      9.0759909      9.076          9.076          747.62364    
       194   0             -658.49499      132840.88      138048.79      130334.84      130139         5350.0458      436.2792       4609.7982      9.0759909      9.076          9.076          747.62364    
       195   0             -658.52287      133988.68      139529.91      131287.87      131148.25      5855.133       1181.4915      4135.0506      9.0759909      9.076          9.076          747.62364    
       196   0             -658.55091      134715.98      140200.73      131987.57      131959.64      5446.0278      896.53919      4633.0292      9.0759909      9.076          9.076          747.62364    
       197   0             -658.57869      136021.76      141817.26      133141.92      133106.11      5986.8376      1778.9273      4161.5362      9.0759909      9.076          9.076          747.62364    
       198   0             -658.60719      136787.27      142505.09      133883.11      133973.59      5530.4691      1346.2982      4819.2225      9.0759909      9.076          9.076          747.62364    
       199   0             -658.63614      138341.73      144425         135274.97      135325.23      6301.1688      2405.6415      4281.426       9.0759909      9.076          9.076          747.62364    
       200   0             -658.66702      139266.62      145304.46      136124.13      136371.26      6035.5982      1847.8974      5035.2885      9.0759909      9.076          9.076          747.62364    
       201   0             -658.69962      141079.07      147536.15      137735.65      137965.42      7157.5667      3040.3851      4526.8409      9.0759909      9.076          9.076          747.62364    
       202   0             -658.73416      142188.43      148588.59      138726.24      139250.44      7179.2152      2184.7414      5360.9528      9.0759909      9.076          9.076          747.62364    
       203   0             -658.7662       143864.53      150657.5       140209.51      140726.56      8247.2511      3245.8366      5038.6455      9.0759909      9.076          9.076          747.62364    
       204   0             -658.79624      145118.53      151917.39      141362.64      142075.57      8320.7302      2528.3106      5731.076       9.0759909      9.076          9.076          747.62364    
       205   0             -658.82645      146755.67      154114.9       142758.54      143393.57      8867.6107      3859.0998      5311.2529      9.0759909      9.076          9.076          747.62364    
       206   0             -658.85659      147991.83      155339.8       143868.62      144767.07      8001.7251      2348.8262      6372.9946      9.0759909      9.076          9.076          747.62364    
       207   0             -658.88681      149425.52      157454.4       144932.44      145889.73      8056.7719      3493.1958      6056.9865      9.0759909      9.076          9.076          747.62364    
       208   0             -658.91243      150393.03      158400.27      145644.56      147134.28      7341.2758      1983.6316      6830.2715      9.0759909      9.076          9.076          747.62364    
       209   0             -658.9351       151322.27      160031.25      146147.99      147787.57      7460.707       3455.7903      6378.8479      9.0759909      9.076          9.076          747.62364    
       210   0             -658.95555      152288.86      160965.58      146889.94      149011.06      7024.2687      2509.8534      6836.1051      9.0759909      9.076          9.076          747.62364    
       211   0             -658.97173      152633.12      161740.84      146857.31      149301.22      6809.1011      3008.9883      6786.8881      9.0759909      9.076          9.076          747.62364    
       212   0             -658.98564      153740.68      162570.32      147875.88      150775.83      6657.0756      2070.8616      6909.5231      9.0759909      9.076          9.076          747.62364    
       213   0             -659.0013       153865.3       163226.7       147606.46      150762.75      6450.5228      2746.0463      6703.83        9.0759909      9.076          9.076          747.62364    
       214   0             -659.01544      154614.19      163997.08      148154.83      151690.66      6223.3198      2520.0888      6798.2482      9.0759909      9.076          9.076          747.62364    
       215   0             -659.02804      154823.32      164770.42      147968.25      151731.28      6083.2114      2768.5686      6450.0147      9.0759909      9.076          9.076          747.62364    
       216   0             -659.04282      155825.08      165520.57      148910.96      153043.71      5786.2921      2667.2582      6682.5387      9.0759909      9.076          9.076          747.62364    
       217   0             -659.05604      156027.66      166096.05      148789.66      153197.28      5590.4103      2304.1904      6609.0154      9.0759909      9.076          9.076          747.62364    
       218   0             -659.06827      157207.37      167002.58      149950.3       154669.23      5351.4609      3285.5335      6683.266       9.0759909      9.076          9.076          747.62364    
       219   0             -659.08185      157249.39      167456.18      149707.86      154584.13      5122.3769      2562.9587      6381.3171      9.0759909      9.076          9.076          747.62364    
       220   0             -659.09641      158178.38      168286.11      150564.91      155684.11      4873.7313      3232.5482      6311.5615      9.0759909      9.076          9.076          747.62364    
       221   0             -659.10908      158236.96      168593.35      150291.24      155826.3       4330.466       2328.5766      6038.0495      9.0759909      9.076          9.076          747.62364    
       222   0             -659.12587      159538.04      169998.56      151604.84      157010.73      3828.9096      2379.4362      6148.4343      9.0759909      9.076          9.076          747.62364    
       223   0             -659.1402       161343.23      171553.8       153641.94      158833.94      4284.3448      3507.3357      6105.4499      9.0759909      9.076          9.076          747.62364    
       224   0             -659.15701      161733.54      172042.66      153848.86      159309.1       2527.4733      1817.2999      6362.9092      9.0759909      9.076          9.076          747.62364    
       225   0             -659.17071      163022.81      173902.45      155185.63      159980.34      1991.3645      2939.8324      5795.6082      9.0759909      9.076          9.076          747.62364    
       226   0             -659.18684      164618.28      175441.04      156875.21      161538.6       1499.0195      2580.6048      5991.4801      9.0759909      9.076          9.076          747.62364    
       227   0             -659.19595      165021.83      175193.78      157247.36      162624.35      1496.7598      1071.5493      6613.3248      9.0759909      9.076          9.076          747.62364    
       228   0             -659.20589      164951.11      175187.84      157256.99      162408.49      1479.5135      2344.0766      5698.193       9.0759909      9.076          9.076          747.62364    
       229   0             -659.22385      166043.32      176135.86      158621.66      163372.44      902.83781      2909.5483      5564.3613      9.0759909      9.076          9.076          747.62364    
       230   0             -659.2342       167601.42      177350.2       160371.87      165082.19      549.72898      1290.2258      6417.4494      9.0759909      9.076          9.076          747.62364    
       231   0             -659.24083      168431.02      178758.81      161226.11      165308.13      1060.2329      1565.4241      5688.0957      9.0759909      9.076          9.076          747.62364    
       232   0             -659.25886      169637.99      180028.71      162319.78      166565.48      1208.3581      1210.4981      5707.9364      9.0759909      9.076          9.076          747.62364    
       233   0             -659.27143      169820.01      179201         162956.2       167302.83      530.92033      1052.751       6800.6938      9.0759909      9.076          9.076          747.62364    
       234   0             -659.28215      169773.57      179022.33      163558.96      166739.42      1244.297       2772.2828      6234.0362      9.0759909      9.076          9.076          747.62364    
       235   0             -659.30059      172157.13      181513.75      166432.51      168525.13      3285.6084      2565.2131      5502.4422      9.0759909      9.076          9.076          747.62364    
       236   0             -659.31297      174000.68      182869.76      168319.49      170812.79      2304.6479      378.15949      5823.6421      9.0759909      9.076          9.076          747.62364    
       237   0             -659.32435      175149.36      184506.02      169452.25      171489.8       1383.9024      767.94494      4401.055       9.0759909      9.076          9.076          747.62364    
       238   0             -659.33737      175616.73      185585.56      169997.43      171267.19      3843.5808      3199.837       3683.9109      9.0759909      9.076          9.076          747.62364    
       239   0             -659.35181      177590.26      186398.95      172721.43      173650.41      5811.127       2280.561       4070.3988      9.0759909      9.076          9.076          747.62364    
       240   0             -659.36214      179177.13      187304.6       175078.5       175148.3       4012.7033      1035.1076      3401.2892      9.0759909      9.076          9.076          747.62364    
       241   0             -659.37007      180287.9       189261.38      176518.24      175084.09      2730.0943      2031.4208      1652.8169      9.0759909      9.076          9.076          747.62364    
       242   0             -659.38158      182043.15      191303.7       178317.12      176508.64      2955.0528      1334.331       1498.8702      9.0759909      9.076          9.076          747.62364    
       243   0             -659.38904      183128.34      191356.63      179662.37      178366.03      3541.4078     -206.79953      2175.3648      9.0759909      9.076          9.076          747.62364    
       244   0             -659.39547      183749.42      191967.72      180601.96      178678.58      3980.3194      1246.0326      1049.1546      9.0759909      9.076          9.076          747.62364    
       245   0             -659.40387      184384.4       193075.05      181287.21      178790.93      4171.3897      2745.4199      182.09923      9.0759909      9.076          9.076          747.62364    
       246   0             -659.40914      185312.04      193566.72      182302.53      180066.87      4006.4293      540.86132      695.93333      9.0759909      9.076          9.076          747.62364    
       247   0             -659.41445      186335.62      194841.3       183785.19      180380.36      3194.7028     -1256.9294     -445.12563      9.0759909      9.076          9.076          747.62364    
       248   0             -659.42115      186850         195890.6       184682.11      179977.28      2810.2741      732.50346     -1288.2854      9.0759909      9.076          9.076          747.62364    
       249   0             -659.42935      187596.62      196093.64      185666.15      181030.06      3211.6235      902.25942     -1198.3327      9.0759909      9.076          9.076          747.62364    
       250   0             -659.43575      188039.69      196421.5       186290.06      181407.51      3844.2553      537.22287     -2536.2623      9.0759909      9.076          9.076          747.62364    
       251   0             -659.4422       188716.71      197070.67      187141.68      181937.76      4248.5306      808.85798     -2921.9519      9.0759909      9.076          9.076          747.62364    
       252   0             -659.44526      189066.79      197350.04      187700.71      182149.62      3811.3301      718.73035     -2365.3387      9.0759909      9.076          9.076          747.62364    
       253   0             -659.45099      189509.47      197839.93      188561.69      182126.78      3331.3707     -65.435406     -3251.7905      9.0759909      9.076          9.076          747.62364    
       254   0             -659.46013      190463.37      198495.25      189657.87      183236.99      4012.1228     -1053.6701     -3655.3327      9.0759909      9.076          9.076          747.62364    
       255   0             -659.46914      191480.74      199847.68      190993.84      183600.71      4767.9732      1383.3477     -4262.4373      9.0759909      9.076          9.076          747.62364    
       256   0             -659.47734      192423.97      200034.37      192398.42      184839.14      5220.2723      287.73743     -4846.1395      9.0759909      9.076          9.076          747.62364    
       257   0             -659.4871       192876.78      200683.37      193146.46      184800.51      5296.8877      232.80148     -5735.2722      9.0759909      9.076          9.076          747.62364    
       258   0             -659.4971       194211.68      201505.63      194853.64      186275.78      5529.3482     -600.57722     -4857.1149      9.0759909      9.076          9.076          747.62364    
       259   0             -659.50855      195407.97      202625.87      196630.75      186967.3       5698.0577     -513.45636     -5487.085       9.0759909      9.076          9.076          747.62364    
       260   0             -659.5113       195807.58      203257.93      197213.21      186951.59      6157.5163      299.33223     -7046.2633      9.0759909      9.076          9.076          747.62364    
       261   0             -659.518        197727.25      204495.85      199786.58      188899.32      6881.9135      778.75647     -7659.4399      9.0759909      9.076          9.076          747.62364    
       262   0             -659.53165      198850.36      205295.73      201317.73      189937.62      6538.8397      772.09535     -6034.5482      9.0759909      9.076          9.076          747.62364    
       263   0             -659.5439       199263.45      206115.99      202080.53      189593.84      6453.8589     -284.01681     -6818.2186      9.0759909      9.076          9.076          747.62364    
       264   0             -659.5494       200388.95      206194.25      203713.41      191259.18      6636.4256     -2009.0156     -6959.5543      9.0759909      9.076          9.076          747.62364    
       265   0             -659.55645      201519.1       206782.22      205599.6       192175.49      6561.0285     -1324.6584     -7839.1861      9.0759909      9.076          9.076          747.62364    
       266   0             -659.55944      201403.21      207412.84      205313.72      191483.06      6427.2891      293.73187     -8012.9858      9.0759909      9.076          9.076          747.62364    
       267   0             -659.56085      201631.9       207475.58      205365.76      192054.37      6782.0945     -89.430282     -7565.2617      9.0759909      9.076          9.076          747.62364    
       268   0             -659.56275      201941.49      207492.69      205823.23      192508.55      7500.3732     -593.23222     -8402.1974      9.0759909      9.076          9.076          747.62364    
       269   0             -659.56601      202331.37      207965.01      206446.09      192583.01      7618.9286      1087.0142     -8713.4466      9.0759909      9.076          9.076          747.62364    
       270   0             -659.56932      202429.02      207831.76      206472.79      192982.51      7397.0556      292.36893     -8813.2921      9.0759909      9.076          9.076          747.62364    
       271   0             -659.5707       202383.97      208212.07      206368.9       192570.94      7533.0005      182.82046     -9451.0775      9.0759909      9.076          9.076          747.62364    
       272   0             -659.57191      202776.8       208495.54      206716.31      193118.53      7866.1784     -107.05529     -9157.6035      9.0759909      9.076          9.076          747.62364    
       273   0             -659.57299      203142.61      208428.42      207162.48      193836.92      7954.1719      102.26252     -9240.5155      9.0759909      9.076          9.076          747.62364    
       274   0             -659.57388      203239.78      208790.07      207284.45      193644.81      8227.575       724.19242     -9569.1585      9.0759909      9.076          9.076          747.62364    
       275   0             -659.57494      203375.52      208820.53      207369.56      193936.46      8757.1835      44.203639     -8779.0335      9.0759909      9.076          9.076          747.62364    
       276   0             -659.57609      203443.01      208490.81      207532.53      194305.68      8846.9612     -436.69443     -8597.8339      9.0759909      9.076          9.076          747.62364    
       277   0             -659.57736      203675.85      209024.45      207816.39      194186.7       8805.9645      504.00432     -9120.2178      9.0759909      9.076          9.076          747.62364    
       278   0             -659.57856      204247.93      209572.13      208342.5       194829.17      9063.0718     -230.51104     -8978.5807      9.0759909      9.076          9.076          747.62364    
       279   0             -659.58097      204849.18      210313.42      208992.67      195241.45      9649.8754     -885.29774     -9106.9223      9.0759909      9.076          9.076          747.62364    
       280   0             -659.58396      205085.58      210675.55      209172.98      195408.2       10028.325      248.13267     -8890.6786      9.0759909      9.076          9.076          747.62364    
       281   0             -659.58668      205151.09      210241.22      209159.15      196052.91      10266.866     -585.34096     -9020.2566      9.0759909      9.076          9.076          747.62364    
       282   0             -659.5902       205044.47      210201.1       209072.84      195859.46      10427.372     -507.9912      -9661.0398      9.0759909      9.076          9.076          747.62364    
       283   0             -659.59348      205387.61      211013.36      209514.56      195634.91      10534.034      378.89023     -9365.9157      9.0759909      9.076          9.076          747.62364    
       284   0             -659.59727      206436.35      211777.83      210585.12      196946.11      10669.106     -795.46627     -9179.3321      9.0759909      9.076          9.076          747.62364    
       285   0             -659.60259      206997.44      212422.73      211046.63      197522.97      10887.556     -1539.6372     -10718.666      9.0759909      9.076          9.076          747.62364    
       286   0             -659.60727      206867.96      212870.3       210928.09      196805.49      11525.266      339.41634     -11021.345      9.0759909      9.076          9.076          747.62364    
       287   0             -659.61105      207021.12      212412.97      211235.27      197415.11      12492.653      9.2762864     -10345.133      9.0759909      9.076          9.076          747.62364    
       288   0             -659.61683      207470.25      212691.33      211919.51      197799.9       12942.03      -1526.5524     -11059.547      9.0759909      9.076          9.076          747.62364    
       289   0             -659.62008      208084.61      213944.89      212503.86      197805.07      12464.702     -241.21402     -11467.042      9.0759909      9.076          9.076          747.62364    
       290   0             -659.62273      209141.17      214681.19      213470.32      199272         12086.301     -537.7089      -11174.182      9.0759909      9.076          9.076          747.62364    
       291   0             -659.62592      209477.06      214938.39      213869.92      199622.87      12493.745     -1640.8494     -11377.491      9.0759909      9.076          9.076          747.62364    
       292   0             -659.62829      209412.61      215421.45      213820.86      198995.51      12516.338     -254.06327     -11354.026      9.0759909      9.076          9.076          747.62364    
       293   0             -659.62953      209560.28      215157.09      214005.86      199517.89      12465.063     -52.935483     -11162.261      9.0759909      9.076          9.076          747.62364    
       294   0             -659.63046      209725.09      215233.05      214209.63      199732.6       12495.593     -757.63466     -11724.348      9.0759909      9.076          9.076          747.62364    
       295   0             -659.6314       209958.73      215755.26      214374.76      199746.17      12476.04      -706.64261     -11428.035      9.0759909      9.076          9.076          747.62364    
       296   0             -659.63249      210118.97      215630.6       214622.33      200103.98      12279.943     -360.77389     -11059.556      9.0759909      9.076          9.076          747.62364    
       297   0             -659.63319      210052.55      215698.19      214594.19      199865.26      12031.522      196.38364     -11742.178      9.0759909      9.076          9.076          747.62364    
       298   0             -659.63364      210107.88      215750.1       214562.03      200011.52      11989.965      54.459624     -11572.083      9.0759909      9.076          9.076          747.62364    
       299   0             -659.63405      210191.38      215752.61      214651.36      200170.16      11988.093     -278.42699     -11326.976      9.0759909      9.076          9.076          747.62364    
       300   0             -659.6345       210342.24      216129.16      214861.13      200036.42      11782.309      9.7240726     -11631.794      9.0759909      9.076          9.076          747.62364    
       301   0             -659.63479      210478.89      216157.83      215031.87      200246.97      11660.84      -39.886812     -11542.837      9.0759909      9.076          9.076          747.62364    
       302   0             -659.63513      210532         216085.7       215205.45      200304.84      11530.298     -124.64533     -11804.247      9.0759909      9.076          9.076          747.62364    
       303   0             -659.63538      210634.12      216162.31      215319.35      200420.7       11510.932     -30.573378     -12007.419      9.0759909      9.076          9.076          747.62364    
       304   0             -659.63559      210814.1       216311.62      215460.95      200669.75      11479.037      169.80253     -11814.564      9.0759909      9.076          9.076          747.62364    
       305   0             -659.63579      210923.66      216480.67      215630.96      200659.33      11367.165      296.05505     -12003          9.0759909      9.076          9.076          747.62364    
       306   0             -659.63598      211050.42      216475.9       215850.05      200825.31      11212.054      39.108942     -12133.131      9.0759909      9.076          9.076          747.62364    
       307   0             -659.6361       211118.15      216537.99      215924.16      200892.3       11079.322      292.25161     -12036.505      9.0759909      9.076          9.076          747.62364    
       308   0             -659.6362       211164.5       216496.64      216003.77      200993.08      11040.811      363.08388     -12129.168      9.0759909      9.076          9.076          747.62364    
       309   0             -659.63627      211247.41      216520.62      216087.51      201134.09      11057.401      317.25084     -12169.588      9.0759909      9.076          9.076          747.62364    
       310   0             -659.63635      211303.96      216680.79      216154.67      201076.42      11003.018      507.60834     -12299.053      9.0759909      9.076          9.076          747.62364    
       311   0             -659.6364       211327.91      216613.19      216193.2       201177.35      10959.848      452.42353     -12265.491      9.0759909      9.076          9.076          747.62364    
       312   0             -659.63644      211320.01      216578.49      216159.34      201222.19      10916.485      458.95413     -12266.411      9.0759909      9.076          9.076          747.62364    
       313   0             -659.63646      211316.68      216613.18      216150.64      201186.24      10888.609      537.82158     -12325.074      9.0759909      9.076          9.076          747.62364    
       314   0             -659.63648      211332.36      216580.36      216165.44      201251.28      10862.46       484.04541     -12275.23       9.0759909      9.076          9.076          747.62364    
       315   0             -659.63651      211311.71      216563.7       216154.69      201216.73      10791.814      492.98794     -12306.496      9.0759909      9.076          9.076          747.62364    
       316   0             -659.63652      211303.9       216553.2       216156.03      201202.47      10748.501      593.66785     -12358.584      9.0759909      9.076          9.076          747.62364    
       317   0             -659.63654      211317.53      216511.99      216168.66      201271.94      10722.373      549.14735     -12326.665      9.0759909      9.076          9.076          747.62364    
       318   0             -659.63655      211302.4       216539.79      216148.36      201219.06      10639.68       529.41986     -12338.463      9.0759909      9.076          9.076          747.62364    
       319   0             -659.63657      211278.4       216549.27      216115.7       201170.23      10536.048      670.29445     -12295.226      9.0759909      9.076          9.076          747.62364    
       320   0             -659.63659      211266.7       216474.18      216098.71      201227.21      10436.969      577.01604     -12304.636      9.0759909      9.076          9.076          747.62364    
       321   0             -659.63661      211227.23      216459.9       216049.95      201171.83      10300.86       507.67555     -12430.069      9.0759909      9.076          9.076          747.62364    
       322   0             -659.63664      211159.8       216400.25      215939.61      201139.54      10068.588      606.01643     -12308.97       9.0759909      9.076          9.076          747.62364    
       323   0             -659.63675      210942.94      215969.59      215680.14      201179.11      9478.1163      666.43948     -12176.821      9.0759909      9.076          9.076          747.62364    
       324   0             -659.63711      210685.08      215668.28      215366.78      201020.19      8819.1842      790.43481     -12273.866      9.0759909      9.076          9.076          747.62364    
       325   0             -659.63784      210412.64      215865.59      214968.72      200403.6       7868.2803      993.70088     -12937.088      9.0759909      9.076          9.076          747.62364    
       326   0             -659.6386       210143.39      215762.89      214586.58      200080.71      7013.6209      938.5087      -13250.5        9.0759909      9.076          9.076          747.62364    
       327   0             -659.64115      209858.48      215180.56      214218         200176.88      6360.5585      584.14483     -12967.358      9.0759909      9.076          9.076          747.62364    
       328   0             -659.64202      209845.81      214908.2       214226.25      200402.96      6546.9164      635.95043     -12319.144      9.0759909      9.076          9.076          747.62364    
       329   0             -659.64287      209831.43      215279.82      214100.29      200114.16      6426.9677      1021.7148     -12030.615      9.0759909      9.076          9.076          747.62364    
       330   0             -659.64602      209789.45      215073.27      214117.58      200177.52      5370.9742      677.09421     -12364.808      9.0759909      9.076          9.076          747.62364    
       331   0             -659.64936      209193.36      214578.17      213537.27      199464.65      4514.546       700.93527     -12717.359      9.0759909      9.076          9.076          747.62364    
       332   0             -659.65222      208678.67      214084.65      212853.39      199097.98      3960.6693      216.41057     -12753.611      9.0759909      9.076          9.076          747.62364    
       333   0             -659.65683      208564.26      213998.68      212513.85      199180.24      3960.368      -320.71806     -12856.036      9.0759909      9.076          9.076          747.62364    
       334   0             -659.66066      208192.69      213822.4       212243.75      198511.92      3927.9924      628.81566     -13421.175      9.0759909      9.076          9.076          747.62364    
       335   0             -659.66536      207733.13      212904.47      211968.84      198326.06      4014.1932      248.9056      -12379.665      9.0759909      9.076          9.076          747.62364    
       336   0             -659.66943      207311.28      212421.66      211476.93      198035.25      3603.2356     -784.2499      -12360.196      9.0759909      9.076          9.076          747.62364    
       337   0             -659.67199      207007.25      212748.39      211207.76      197065.6       2913.6798     -147.22071     -14020.428      9.0759909      9.076          9.076          747.62364    
       338   0             -659.67431      207035.1       212595.42      211147.85      197362.05      2739.6841      579.08747     -13870.071      9.0759909      9.076          9.076          747.62364    
       339   0             -659.67676      206978.52      212579.12      210879.55      197476.89      3161.911      -242.12507     -12558.808      9.0759909      9.076          9.076          747.62364    
       340   0             -659.67849      206681.14      212857.01      210636.21      196550.18      2918.4119     -143.53257     -13290.446      9.0759909      9.076          9.076          747.62364    
       341   0             -659.68103      206481.59      212213.4       210578.87      196652.49      2249.4559      337.77533     -13906.824      9.0759909      9.076          9.076          747.62364    
       342   0             -659.68257      206523.84      211829.3       210488.16      197254.04      2426.8952      340.78006     -12998.845      9.0759909      9.076          9.076          747.62364    
       343   0             -659.68423      206440.03      212318.72      210239.39      196761.98      2621.785       314.06594     -13138.507      9.0759909      9.076          9.076          747.62364    
       344   0             -659.68584      206642.65      212806.33      210264.11      196857.51      2658.0455     -319.91954     -13265.242      9.0759909      9.076          9.076          747.62364    
       345   0             -659.68847      207009.58      212313.85      210772.25      197942.63      2425.3231      270.82337     -12918.523      9.0759909      9.076          9.076          747.62364    
       346   0             -659.68987      206903.22      212298.42      210768.27      197642.97      2236.1649      647.17456     -13381.676      9.0759909      9.076          9.076          747.62364    
       347   0             -659.69118      206925.46      212447.63      210553.02      197775.73      2371.918      -86.17018      -12861.993      9.0759909      9.076          9.076          747.62364    
       348   0             -659.69219      207164.35      212714.84      210646.7       198131.51      2404.1042      8.167949      -12465.327      9.0759909      9.076          9.076          747.62364    
       349   0             -659.69292      207327.07      213150.06      210874.93      197956.21      2243.3496      753.23016     -13042.912      9.0759909      9.076          9.076          747.62364    
       350   0             -659.69385      207444.68      213147.85      211055.85      198130.32      2346.5991      551.47142     -13317.558      9.0759909      9.076          9.076          747.62364    
       351   0             -659.69452      207499.15      213120.46      210981.76      198395.21      2450.6206     -65.764438     -12978.595      9.0759909      9.076          9.076          747.62364    
       352   0             -659.69535      207387.96      213307.54      210849.26      198007.08      2199.7786      320.22398     -13321.76       9.0759909      9.076          9.076          747.62364    
       353   0             -659.69596      207450.57      213079.5       211021.98      198250.24      2172.1326      1064.2355     -13253.541      9.0759909      9.076          9.076          747.62364    
       354   0             -659.69647      207667.26      213045.22      211195.01      198761.55      2430.7972      554.41058     -12889.965      9.0759909      9.076          9.076          747.62364    
       355   0             -659.69696      207845.08      213604.41      211316.44      198614.39      2465.1223     -31.329945     -13387.657      9.0759909      9.076          9.076          747.62364    
       356   0             -659.69749      208051.9       213950.97      211452.07      198752.65      2287.4276      108.58588     -13482.217      9.0759909      9.076          9.076          747.62364    
       357   0             -659.69797      208104.52      213618.09      211522.46      199173.02      2256.3999      329.80473     -13004.232      9.0759909      9.076          9.076          747.62364    
       358   0             -659.69829      208020.74      213445.04      211562.98      199054.21      2073.1725      617.95514     -13195.661      9.0759909      9.076          9.076          747.62364    
       359   0             -659.69849      208057.52      213518.47      211578.61      199075.48      2082.9139      317.33725     -13180.064      9.0759909      9.076          9.076          747.62364    
       360   0             -659.69892      208228.21      213603.59      211756.19      199324.84      2077.2491      386.6123      -13142.525      9.0759909      9.076          9.076          747.62364    
       361   0             -659.69922      208294.66      213680.49      211916.35      199287.13      1863.9788      644.582       -13370.701      9.0759909      9.076          9.076          747.62364    
[...]
       420   0             -659.70201      210443.27      215259.76      213894.58      202175.48      1527.2748      222.21781     -12851.115      9.076          9.076          9.076          747.62439    
       421   0             -659.70201      210443.43      215259.16      213894.58      202176.54      1527.4686      221.47805     -12849.774      9.076          9.076          9.076          747.62439    
       422   0             -659.70201      210443.84      215259.24      213894.84      202177.43      1527.4311      221.7412      -12849.188      9.076          9.076          9.076          747.62439    
       423   0             -659.70201      210443.92      215260.01      213894.95      202176.79      1526.9302      221.87293     -12850.452      9.076          9.076          9.076          747.62439    
       424   0             -659.70201      210444.01      215260.12      213894.96      202176.96      1526.8464      221.29352     -12850.192      9.076          9.076          9.076          747.62439    
       425   0             -659.70201      210443.9       215259.22      213895.06      202177.41      1526.7822      221.57795     -12849.214      9.076          9.076          9.076          747.62439    
       426   0             -659.70201      210443.75      215259.27      213895.04      202176.96      1526.5534      221.52246     -12849.536      9.076          9.076          9.076          747.62439    
       427   0             -659.70201      210443.88      215259.57      213895         202177.07      1526.5591      220.84659     -12849.117      9.076          9.076          9.076          747.62439    
       428   0             -659.70201      210444.24      215259.72      213895.38      202177.62      1526.3483      221.77679     -12848.71       9.076          9.076          9.076          747.62439    
       429   0             -659.70201      210444.36      215259.98      213895.7       202177.39      1526.0093      222.19786     -12849.257      9.076          9.076          9.076          747.62439    
       430   0             -659.70201      210444.69      215260.26      213896.12      202177.67      1525.9378      221.27459     -12848.937      9.076          9.076          9.076          747.62439    
       431   0             -659.70201      210444.84      215260.32      213896.24      202177.96      1526.0932      221.42119     -12848.43       9.076          9.076          9.076          747.62439    
       432   0             -659.70201      210444.82      215260.43      213896.29      202177.74      1526.0362      221.8825      -12848.692      9.076          9.076          9.076          747.62439    
       433   0             -659.70201      210444.84      215260.45      213896.36      202177.71      1525.991       221.76598     -12848.776      9.076          9.076          9.076          747.62439    
       434   0             -659.70201      210444.96      215260.45      213896.44      202177.99      1526.0658      221.58522     -12848.464      9.076          9.076          9.076          747.62439    
       435   0             -659.70201      210445.11      215260.61      213896.61      202178.12      1526.0245      221.80475     -12848.508      9.076          9.076          9.076          747.62439    
       436   0             -659.70201      210445.24      215260.73      213896.74      202178.24      1525.9372      222.19015     -12848.604      9.076          9.076          9.076          747.62439    
       437   0             -659.70201      210445.31      215260.76      213896.78      202178.39      1525.9699      222.05724     -12848.464      9.076          9.076          9.076          747.62439    
       438   0             -659.70201      210445.34      215260.81      213896.84      202178.36      1525.9643      221.91233     -12848.577      9.076          9.076          9.076          747.62439    
       439   0             -659.70201      210445.4       215260.8       213896.94      202178.45      1525.9589      222.05375     -12848.633      9.076          9.076          9.076          747.62439    
       440   0             -659.70201      210445.49      215260.85      213897.01      202178.62      1525.963       222.06826     -12848.463      9.076          9.076          9.076          747.62439    
       441   0             -659.70201      210445.59      215261.01      213897.1       202178.66      1525.8714      222.07106     -12848.488      9.076          9.076          9.076          747.62439    
       442   0             -659.70201      210445.64      215261.04      213897.18      202178.7       1525.8192      222.06431     -12848.576      9.076          9.076          9.076          747.62439    
       443   0             -659.70201      210445.68      215261.01      213897.2       202178.82      1525.8368      222.06952     -12848.483      9.076          9.076          9.076          747.62439    
       444   0             -659.70201      210445.71      215261.06      213897.22      202178.86      1525.8277      222.17723     -12848.499      9.076          9.076          9.076          747.62439    
       445   0             -659.70201      210445.75      215261.1       213897.28      202178.87      1525.8106      222.11619     -12848.593      9.076          9.076          9.076          747.62439    
       446   0             -659.70201      210445.79      215261.1       213897.33      202178.95      1525.8148      222.04716     -12848.53       9.076          9.076          9.076          747.62439    
       447   0             -659.70201      210445.82      215261.13      213897.38      202178.95      1525.7643      222.14276     -12848.517      9.076          9.076          9.076          747.62439    
       448   0             -659.70201      210445.83      215261.18      213897.4       202178.92      1525.7485      222.12826     -12848.567      9.076          9.076          9.076          747.62439    
       449   0             -659.70201      210445.87      215261.19      213897.42      202178.98      1525.7687      222.08313     -12848.516      9.076          9.076          9.076          747.62439    
       450   0             -659.70201      210445.88      215261.19      213897.44      202179.02      1525.7616      222.15486     -12848.497      9.076          9.076          9.076          747.62439    
       451   0             -659.70201      210445.89      215261.21      213897.46      202179         1525.7278      222.1903      -12848.553      9.076          9.076          9.076          747.62439    
       452   0             -659.70201      210445.91      215261.22      213897.47      202179.03      1525.7187      222.1555      -12848.536      9.076          9.076          9.076          747.62439    
       453   0             -659.70201      210445.93      215261.22      213897.5       202179.06      1525.7146      222.13257     -12848.496      9.076          9.076          9.076          747.62439    
       454   0             -659.70201      210445.93      215261.23      213897.51      202179.05      1525.6993      222.16415     -12848.512      9.076          9.076          9.076          747.62439    
       455   0             -659.70201      210445.94      215261.24      213897.51      202179.06      1525.6949      222.17057     -12848.497      9.076          9.076          9.076          747.62439    
       456   0             -659.70201      210445.95      215261.25      213897.52      202179.08      1525.6948      222.14019     -12848.498      9.076          9.076          9.076          747.62439    
       457   0             -659.70201      210445.96      215261.26      213897.53      202179.08      1525.6889      222.15307     -12848.514      9.076          9.076          9.076          747.62439    
       458   0             -659.70201      210445.97      215261.27      213897.54      202179.1       1525.688       222.17282     -12848.495      9.076          9.076          9.076          747.62439    
       459   0             -659.70201      210445.98      215261.27      213897.55      202179.11      1525.6862      222.15107     -12848.481      9.076          9.076          9.076          747.62439    
       460   0             -659.70201      210445.98      215261.28      213897.55      202179.11      1525.6786      222.14687     -12848.493      9.076          9.076          9.076          747.62439    
       461   0             -659.70201      210445.98      215261.27      213897.55      202179.12      1525.674       222.15489     -12848.492      9.076          9.076          9.076          747.62439    
       462   0             -659.70201      210445.99      215261.28      213897.56      202179.13      1525.6756      222.15356     -12848.479      9.076          9.076          9.076          747.62439    
       463   0             -659.70201      210445.99      215261.29      213897.57      202179.12      1525.6747      222.15502     -12848.485      9.076          9.076          9.076          747.62439    
       464   0             -659.70201      210446         215261.29      213897.57      202179.13      1525.6754      222.15404     -12848.486      9.076          9.076          9.076          747.62439    
       465   0             -659.70201      210446         215261.3       213897.58      202179.14      1525.6736      222.15284     -12848.482      9.076          9.076          9.076          747.62439    
       466   0             -659.70201      210446         215261.3       213897.58      202179.14      1525.6695      222.15382     -12848.487      9.076          9.076          9.076          747.62439    
       467   0             -659.70201      210446.01      215261.3       213897.58      202179.15      1525.6685      222.14719     -12848.48       9.076          9.076          9.076          747.62439    
       468   0             -659.70201      210446.01      215261.3       213897.58      202179.15      1525.668       222.14693     -12848.476      9.076          9.076          9.076          747.62439    
       469   0             -659.70201      210446.01      215261.3       213897.59      202179.15      1525.6641      222.15209     -12848.485      9.076          9.076          9.076          747.62439    
       470   0             -659.70201      210446.02      215261.31      213897.59      202179.15      1525.664       222.14476     -12848.484      9.076          9.076          9.076          747.62439    
       471   0             -659.70201      210446.02      215261.31      213897.59      202179.16      1525.6644      222.14242     -12848.477      9.076          9.076          9.076          747.62439    
       472   0             -659.70201      210446.02      215261.31      213897.59      202179.16      1525.6611      222.14799     -12848.478      9.076          9.076          9.076          747.62439    
       473   0             -659.70201      210446.02      215261.31      213897.59      202179.16      1525.6597      222.14618     -12848.483      9.076          9.076          9.076          747.62439    
       474   0             -659.70201      210446.02      215261.31      213897.59      202179.16      1525.6612      222.14357     -12848.479      9.076          9.076          9.076          747.62439    
       475   0             -659.70201      210446.02      215261.31      213897.59      202179.16      1525.6622      222.14594     -12848.476      9.076          9.076          9.076          747.62439    
       476   0             -659.70201      210446.02      215261.31      213897.59      202179.16      1525.662       222.1461      -12848.478      9.076          9.076          9.076          747.62439    
       477   0             -659.70201      210446.02      215261.31      213897.59      202179.16      1525.6627      222.14499     -12848.476      9.076          9.076          9.076          747.62439    
       478   0             -659.70201      210446.02      215261.31      213897.59      202179.16      1525.6627      222.14631     -12848.476      9.076          9.076          9.076          747.62439    
       479   0             -659.70201      210446.02      215261.31      213897.59      202179.16      1525.6623      222.1464      -12848.476      9.076          9.076          9.076          747.62439    
       480   0             -659.70201      210446.02      215261.31      213897.59      202179.16      1525.6627      222.14534     -12848.475      9.076          9.076          9.076          747.62439    
       481   0             -659.70201      210446.02      215261.31      213897.59      202179.16      1525.6631      222.14564     -12848.474      9.076          9.076          9.076          747.62439    
       482   0             -659.70201      210446.02      215261.31      213897.59      202179.16      1525.663       222.146       -12848.475      9.076          9.076          9.076          747.62439    
       483   0             -659.70201      210446.02      215261.31      213897.59      202179.16      1525.6633      222.14553     -12848.474      9.076          9.076          9.076          747.62439    
       484   0             -659.70201      210446.02      215261.31      213897.59      202179.16      1525.6634      222.14564     -12848.474      9.076          9.076          9.076          747.62439    
       485   0             -659.70201      210446.02      215261.31      213897.59      202179.16      1525.6631      222.14584     -12848.474      9.076          9.076          9.076          747.62439    
       486   0             -659.70201      210446.02      215261.31      213897.59      202179.16      1525.663       222.14508     -12848.474      9.076          9.076          9.076          747.62439    
       487   0             -659.70201      210446.02      215261.31      213897.59      202179.16      1525.663       222.14463     -12848.474      9.076          9.076          9.076          747.62439    
       488   0             -659.70201      210446.02      215261.31      213897.59      202179.16      1525.6628      222.14497     -12848.474      9.076          9.076          9.076          747.62439    
       489   0             -659.70201      210446.02      215261.31      213897.59      202179.16      1525.6628      222.14501     -12848.474      9.076          9.076          9.076          747.62439    
       490   0             -659.70201      210446.02      215261.31      213897.59      202179.16      1525.6627      222.14488     -12848.473      9.076          9.076          9.076          747.62439    
       491   0             -659.70201      210446.02      215261.31      213897.59      202179.16      1525.6625      222.145       -12848.474      9.076          9.076          9.076          747.62439    
       492   0             -659.70201      210446.02      215261.31      213897.59      202179.16      1525.6625      222.14475     -12848.474      9.076          9.076          9.076          747.62439    
       493   0             -659.70201      210446.02      215261.31      213897.59      202179.16      1525.6627      222.14443     -12848.473      9.076          9.076          9.076          747.62439    
       494   0             -659.70201      210446.02      215261.31      213897.59      202179.16      1525.6627      222.14456     -12848.474      9.076          9.076          9.076          747.62439    
       495   0             -659.70201      210446.02      215261.31      213897.59      202179.16      1525.6625      222.1448      -12848.474      9.076          9.076          9.076          747.62439    
       496   0             -659.70201      210446.02      215261.31      213897.59      202179.16      1525.6624      222.14468     -12848.473      9.076          9.076          9.076          747.62439    
       497   0             -659.70201      210446.02      215261.31      213897.59      202179.16      1525.6623      222.14459     -12848.473      9.076          9.076          9.076          747.62439    
       498   0             -659.70201      210446.02      215261.31      213897.59      202179.16      1525.6624      222.14439     -12848.473      9.076          9.076          9.076          747.62439    
       499   0             -659.70201      210446.02      215261.31      213897.59      202179.16      1525.6625      222.14442     -12848.473      9.076          9.076          9.076          747.62439    
       500   0             -659.70201      210446.02      215261.31      213897.59      202179.16      1525.6625      222.14458     -12848.473      9.076          9.076          9.076          747.62439    
       501   0             -659.70201      210446.02      215261.31      213897.59      202179.16      1525.6624      222.14438     -12848.473      9.076          9.076          9.076          747.62439    
Loop time of 1.05797 on 1 procs for 500 steps with 64 atoms

99.7% CPU use with 1 MPI tasks x no OpenMP threads

Minimization stats:
  Stopping criterion = max iterations
  Energy initial, next-to-last, final = 
     -653.439999864312  -659.702006483602  -659.702006483602
  Force two-norm initial, final = 0.00061932427 7.4416112e-08
  Force max component initial, final = 0.00013502438 2.2768084e-08
  Final line search alpha, max atom move = 1 2.2768084e-08
  Iterations, force evaluations = 500 753

MPI task timing breakdown:
Section |  min time  |  avg time  |  max time  |%varavg| %total
---------------------------------------------------------------
Pair    | 1.0481     | 1.0481     | 1.0481     |   0.0 | 99.07
Neigh   | 0.00092845 | 0.00092845 | 0.00092845 |   0.0 |  0.09
Comm    | 0.003154   | 0.003154   | 0.003154   |   0.0 |  0.30
Output  | 0.0035981  | 0.0035981  | 0.0035981  |   0.0 |  0.34
Modify  | 0          | 0          | 0          |   0.0 |  0.00
Other   |            | 0.002191   |            |       |  0.21

Nlocal:             64 ave          64 max          64 min
Histogram: 1 0 0 0 0 0 0 0 0 0
Nghost:           1267 ave        1267 max        1267 min
Histogram: 1 0 0 0 0 0 0 0 0 0
Neighs:           6828 ave        6828 max        6828 min
Histogram: 1 0 0 0 0 0 0 0 0 0
FullNghs:        13656 ave       13656 max       13656 min
Histogram: 1 0 0 0 0 0 0 0 0 0

Total # of neighbors = 13656
Ave neighs/atom = 213.375
Neighbor list builds = 2
Dangerous builds = 0
=========================================
Components of the Elastic Constant Tensor
=========================================
Elastic Constant C11all = 352.664111550897 GPa
Elastic Constant C22all = 299.951702050865 GPa
Elastic Constant C33all = 301.521454749629 GPa
Elastic Constant C12all = 181.288360800594 GPa
Elastic Constant C13all = 170.062803024426 GPa
Elastic Constant C23all = 137.059528149665 GPa
Elastic Constant C44all = 92.9527168649947 GPa
Elastic Constant C55all = 49.6257191528002 GPa
Elastic Constant C66all = 78.1505382280011 GPa
Elastic Constant C14all = -3.76145197276491 GPa
Elastic Constant C15all = -6.79193000039777 GPa
Elastic Constant C16all = 4.42264690735465 GPa
Elastic Constant C24all = -7.44424992194399 GPa
Elastic Constant C25all = -11.395992739579 GPa
Elastic Constant C26all = 17.7651718107663 GPa
Elastic Constant C34all = -15.5018046527402 GPa
Elastic Constant C35all = 5.25048005258941 GPa
Elastic Constant C36all = 5.60506517149043 GPa
Elastic Constant C45all = 4.42794925093403 GPa
Elastic Constant C46all = -3.67060001948994 GPa
Elastic Constant C56all = 18.039591639149 GPa
=========================================
Average properties for a cubic crystal
=========================================
Bulk Modulus = 214.550961366751 GPa
Shear Modulus 1 = 73.5763247485987 GPa
Shear Modulus 2 = 77.621096062784 GPa
Poisson Ratio = 0.338575011304501
Lattice constant (Angstroms) = 9.07599999684796;
Total wall time: 0:00:12
