LAMMPS (23 Jun 2022)
# Compute elastic constant tensor for a crystal
#
# Written by Aidan Thompson (Sandia, athomps@sandia.gov)
#
#  This script uses the following three include files.
#
#   init.mod      (must be modified for different crystal structures)
# 	       	  Define units, deformation parameters and initial
#		  configuration of the atoms and simulation cell.
#
#
#   potential.mod    (must be modified for different pair styles)
# 		     Define pair style and other attributes
#		     not stored in restart file
#
#
#   displace.mod    (displace.mod should not need to be modified)
# 		    Perform positive and negative box displacements
# 		    in direction ${dir} and size ${up}.
# 		    It uses the resultant changes
#		    in stress to compute one
# 		    row of the elastic stiffness tensor
#
#		    Inputs variables:
#		    	   dir = the Voigt deformation component
#		    		    (1,2,3,4,5,6)
#		    Global constants:
#       	    	   up = the deformation magnitude (strain units)
#       		   cfac = conversion from LAMMPS pressure units to
#               	   output units for elastic constants
#
#
#  To run this on a different system, it should only be necessary to
#  modify the files init.mod and potential.mod. In order to calculate
#  the elastic constants correctly, care must be taken to specify
#  the correct units in init.mod (units, cfac and cunits). It is also
#  important to verify that the minimization of energy w.r.t atom
#  positions in the deformed cell is fully converged.
#  One indication of this is that the elastic constants are insensitive
#  to the choice of the variable ${up} in init.mod. Another is to check
#  the final max and two-norm forces reported in the log file. If you know
#  that minimization is not required, you can set maxiter = 0.0 in
#  init.mod.
#

include init.mod
# NOTE: This script can be modified for different atomic structures,
# units, etc. See in.elastic for more info.
#

# Define the finite deformation size. Try several values of this
# variable to verify that results do not depend on it.
variable up equal 1.0e-6

# Define the amount of random jiggle for atoms
# This prevents atoms from staying on saddle points
variable atomjiggle equal 1.0e-5

# Uncomment one of these blocks, depending on what units
# you are using in LAMMPS and for output

# metal units, elastic constants in eV/A^3
#units		metal
#variable cfac equal 6.2414e-7
#variable cunits string eV/A^3

# metal units, elastic constants in GPa
units		metal
variable cfac equal 1.0e-4
variable cunits string GPa

# real units, elastic constants in GPa
#units		real
#variable cfac equal 1.01325e-4
#variable cunits string GPa

# Define minimization parameters
variable etol equal 0.0
variable ftol equal 1.0e-10
variable maxiter equal 500
variable maxeval equal 1000
variable dmax equal 1.0e-2

# generate the box and atom positions using a diamond lattice
# variable a equal 5.43

boundary	p p p

lattice         fcc 4.538
Lattice spacing in x,y,z = 4.538 4.538 4.538
region		simbox prism -1.0 1.0 -1.0 1.0 -1.0 1.0 0.0 0.0 0.0
create_box	2 simbox
Created triclinic box = (-4.538 -4.538 -4.538) to (4.538 4.538 4.538) with tilt (0 0 0)
  1 by 1 by 1 MPI processor grid
lattice 	fcc 4.538 orient x 1 0 0 orient y 0 1 0 orient z 0 0 1
Lattice spacing in x,y,z = 4.538 4.538 4.538
create_atoms	1 region simbox
Created 32 atoms
  using lattice units in triclinic box = (-4.538 -4.538 -4.538) to (4.538 4.538 4.538) with tilt (0 0 0)
  create_atoms CPU = 0.000 seconds
lattice 	fcc 4.538  origin 0 0 0.5 orient x 1 0 0 orient y 0 1 0 orient z 0 0 1
Lattice spacing in x,y,z = 4.538 4.538 4.538
create_atoms	2 region simbox
Created 32 atoms
  using lattice units in triclinic box = (-4.538 -4.538 -4.538) to (4.538 4.538 4.538) with tilt (0 0 0)
  create_atoms CPU = 0.000 seconds

# Need to set mass to something, just to satisfy LAMMPS
mass 1 47.867
mass 2 14.007

include potential.mod
# NOTE: This script can be modified for different pair styles
# See in.elastic for more info.

# Choose potential
pair_style	meam
pair_coeff * * library_HfN.meam Hf N HfN.meam Hf N
Reading MEAM library file library_HfN.meam with DATE: 2015-02-12

# Setup neighbor style
neighbor 1.0 nsq
neigh_modify once no every 1 delay 0 check yes

# Setup minimization style
min_style	     cg
min_modify	     dmax ${dmax} line quadratic
min_modify	     dmax 0.01 line quadratic

# Setup output
thermo		1
thermo_style custom step temp pe press pxx pyy pzz pxy pxz pyz lx ly lz vol
thermo_modify norm no

# Compute initial state
fix 3 all box/relax  aniso 0.0
minimize ${etol} ${ftol} ${maxiter} ${maxeval}
minimize 0 ${ftol} ${maxiter} ${maxeval}
minimize 0 1e-10 ${maxiter} ${maxeval}
minimize 0 1e-10 500 ${maxeval}
minimize 0 1e-10 500 1000
Neighbor list info ...
  update every 1 steps, delay 0 steps, check yes
  max neighbors/atom: 2000, page size: 100000
  master list distance cutoff = 8.38
  ghost atom cutoff = 8.38
  2 neighbor lists, perpetual/occasional/extra = 2 0 0
  (1) pair meam, perpetual
      attributes: full, newton on
      pair build: full/nsq
      stencil: none
      bin: none
  (2) pair meam, perpetual, half/full from (1)
      attributes: half, newton on
      pair build: halffull/newton
      stencil: none
      bin: none
Per MPI rank memory allocation (min/avg/max) = 10.24 | 10.24 | 10.24 Mbytes
   Step          Temp          PotEng         Press           Pxx            Pyy            Pzz            Pxy            Pxz            Pyz             Lx             Ly             Lz           Volume    
         0   0             -653.44        -0.004375024   -0.004375024   -0.004375024   -0.004375024    5.6725355e-20  8.5088032e-20  0              9.076          9.076          9.076          747.62439    
         1   0             -653.44        -4.8534509e-08 -4.8534509e-08 -4.8534509e-08 -4.8534509e-08  0             -2.1639006e-25 -8.6556022e-25  9.076          9.076          9.076          747.62439    
Loop time of 0.00330121 on 1 procs for 1 steps with 64 atoms

99.8% CPU use with 1 MPI tasks x no OpenMP threads

Minimization stats:
  Stopping criterion = force tolerance
  Energy initial, next-to-last, final = 
     -653.439999877045  -653.439999877045  -653.439999877036
  Force two-norm initial, final = 3.5360156e-06 3.9226934e-11
  Force max component initial, final = 2.0415196e-06 2.2647681e-11
  Final line search alpha, max atom move = 1 2.2647681e-11
  Iterations, force evaluations = 1 2

MPI task timing breakdown:
Section |  min time  |  avg time  |  max time  |%varavg| %total
---------------------------------------------------------------
Pair    | 0.0032442  | 0.0032442  | 0.0032442  |   0.0 | 98.27
Neigh   | 0          | 0          | 0          |   0.0 |  0.00
Comm    | 1.3576e-05 | 1.3576e-05 | 1.3576e-05 |   0.0 |  0.41
Output  | 0          | 0          | 0          |   0.0 |  0.00
Modify  | 0          | 0          | 0          |   0.0 |  0.00
Other   |            | 4.345e-05  |            |       |  1.32

Nlocal:             64 ave          64 max          64 min
Histogram: 1 0 0 0 0 0 0 0 0 0
Nghost:           1267 ave        1267 max        1267 min
Histogram: 1 0 0 0 0 0 0 0 0 0
Neighs:           6464 ave        6464 max        6464 min
Histogram: 1 0 0 0 0 0 0 0 0 0
FullNghs:        12928 ave       12928 max       12928 min
Histogram: 1 0 0 0 0 0 0 0 0 0

Total # of neighbors = 12928
Ave neighs/atom = 202
Neighbor list builds = 0
Dangerous builds = 0

variable tmp equal pxx
variable pxx0 equal ${tmp}
variable pxx0 equal -4.85345085623053e-08
variable tmp equal pyy
variable pyy0 equal ${tmp}
variable pyy0 equal -4.85345085623053e-08
variable tmp equal pzz
variable pzz0 equal ${tmp}
variable pzz0 equal -4.85345085623053e-08
variable tmp equal pyz
variable pyz0 equal ${tmp}
variable pyz0 equal -8.6556022434703e-25
variable tmp equal pxz
variable pxz0 equal ${tmp}
variable pxz0 equal -2.16390056086757e-25
variable tmp equal pxy
variable pxy0 equal ${tmp}
variable pxy0 equal 0

variable tmp equal lx
variable lx0 equal ${tmp}
variable lx0 equal 9.07599999684796
variable tmp equal ly
variable ly0 equal ${tmp}
variable ly0 equal 9.07599999684796
variable tmp equal lz
variable lz0 equal ${tmp}
variable lz0 equal 9.07599999684796

# These formulas define the derivatives w.r.t. strain components
# Constants uses $, variables use v_
variable d1 equal -(v_pxx1-${pxx0})/(v_delta/v_len0)*${cfac}
variable d1 equal -(v_pxx1--4.85345085623053e-08)/(v_delta/v_len0)*${cfac}
variable d1 equal -(v_pxx1--4.85345085623053e-08)/(v_delta/v_len0)*0.0001
variable d2 equal -(v_pyy1-${pyy0})/(v_delta/v_len0)*${cfac}
variable d2 equal -(v_pyy1--4.85345085623053e-08)/(v_delta/v_len0)*${cfac}
variable d2 equal -(v_pyy1--4.85345085623053e-08)/(v_delta/v_len0)*0.0001
variable d3 equal -(v_pzz1-${pzz0})/(v_delta/v_len0)*${cfac}
variable d3 equal -(v_pzz1--4.85345085623053e-08)/(v_delta/v_len0)*${cfac}
variable d3 equal -(v_pzz1--4.85345085623053e-08)/(v_delta/v_len0)*0.0001
variable d4 equal -(v_pyz1-${pyz0})/(v_delta/v_len0)*${cfac}
variable d4 equal -(v_pyz1--8.6556022434703e-25)/(v_delta/v_len0)*${cfac}
variable d4 equal -(v_pyz1--8.6556022434703e-25)/(v_delta/v_len0)*0.0001
variable d5 equal -(v_pxz1-${pxz0})/(v_delta/v_len0)*${cfac}
variable d5 equal -(v_pxz1--2.16390056086757e-25)/(v_delta/v_len0)*${cfac}
variable d5 equal -(v_pxz1--2.16390056086757e-25)/(v_delta/v_len0)*0.0001
variable d6 equal -(v_pxy1-${pxy0})/(v_delta/v_len0)*${cfac}
variable d6 equal -(v_pxy1-0)/(v_delta/v_len0)*${cfac}
variable d6 equal -(v_pxy1-0)/(v_delta/v_len0)*0.0001

displace_atoms all random ${atomjiggle} ${atomjiggle} ${atomjiggle} 87287 units box
displace_atoms all random 1e-05 ${atomjiggle} ${atomjiggle} 87287 units box
displace_atoms all random 1e-05 1e-05 ${atomjiggle} 87287 units box
displace_atoms all random 1e-05 1e-05 1e-05 87287 units box
Displacing atoms ...

# Write restart
unfix 3
write_restart restart.equil
System init for write_restart ...

# uxx Perturbation

variable dir equal 1
include displace.mod
# NOTE: This script should not need to be
# modified. See in.elastic for more info.
#
# Find which reference length to use

if "${dir} == 1" then    "variable len0 equal ${lx0}"
variable len0 equal ${lx0}
variable len0 equal 9.07599999684796
if "${dir} == 2" then    "variable len0 equal ${ly0}"
if "${dir} == 3" then    "variable len0 equal ${lz0}"
if "${dir} == 4" then    "variable len0 equal ${lz0}"
if "${dir} == 5" then    "variable len0 equal ${lz0}"
if "${dir} == 6" then    "variable len0 equal ${ly0}"

# Reset box and simulation parameters

clear
box tilt large
read_restart restart.equil
Reading restart file ...
  restart file = 23 Jun 2022, LAMMPS = 23 Jun 2022
  restoring atom style atomic from restart
  triclinic box = (-4.538 -4.538 -4.538) to (4.538 4.538 4.538) with tilt (0 0 0)
  1 by 1 by 1 MPI processor grid
  pair style meam stores no restart info
  64 atoms
  read_restart CPU = 0.000 seconds
include potential.mod
# NOTE: This script can be modified for different pair styles
# See in.elastic for more info.

# Choose potential
pair_style	meam
pair_coeff * * library_HfN.meam Hf N HfN.meam Hf N
Reading MEAM library file library_HfN.meam with DATE: 2015-02-12

# Setup neighbor style
neighbor 1.0 nsq
neigh_modify once no every 1 delay 0 check yes

# Setup minimization style
min_style	     cg
min_modify	     dmax ${dmax} line quadratic
min_modify	     dmax 0.01 line quadratic

# Setup output
thermo		1
thermo_style custom step temp pe press pxx pyy pzz pxy pxz pyz lx ly lz vol
thermo_modify norm no

# Negative deformation

variable delta equal -${up}*${len0}
variable delta equal -1e-06*${len0}
variable delta equal -1e-06*9.07599999684796
variable deltaxy equal -${up}*xy
variable deltaxy equal -1e-06*xy
variable deltaxz equal -${up}*xz
variable deltaxz equal -1e-06*xz
variable deltayz equal -${up}*yz
variable deltayz equal -1e-06*yz
if "${dir} == 1" then    "change_box all x delta 0 ${delta} xy delta ${deltaxy} xz delta ${deltaxz} remap units box"
change_box all x delta 0 ${delta} xy delta ${deltaxy} xz delta ${deltaxz} remap units box
change_box all x delta 0 -9.07599999684796e-06 xy delta ${deltaxy} xz delta ${deltaxz} remap units box
change_box all x delta 0 -9.07599999684796e-06 xy delta -0 xz delta ${deltaxz} remap units box
change_box all x delta 0 -9.07599999684796e-06 xy delta -0 xz delta -0 remap units box
Changing box ...
  triclinic box = (-4.538 -4.538 -4.538) to (4.5379909 4.538 4.538) with tilt (0 0 0)
  triclinic box = (-4.538 -4.538 -4.538) to (4.5379909 4.538 4.538) with tilt (0 0 0)
  triclinic box = (-4.538 -4.538 -4.538) to (4.5379909 4.538 4.538) with tilt (0 0 0)
if "${dir} == 2" then    "change_box all y delta 0 ${delta} yz delta ${deltayz} remap units box"
if "${dir} == 3" then    "change_box all z delta 0 ${delta} remap units box"
if "${dir} == 4" then    "change_box all yz delta ${delta} remap units box"
if "${dir} == 5" then    "change_box all xz delta ${delta} remap units box"
if "${dir} == 6" then    "change_box all xy delta ${delta} remap units box"

# Relax atoms positions

minimize ${etol} ${ftol} ${maxiter} ${maxeval}
minimize 0 ${ftol} ${maxiter} ${maxeval}
minimize 0 1e-10 ${maxiter} ${maxeval}
minimize 0 1e-10 500 ${maxeval}
minimize 0 1e-10 500 1000
Neighbor list info ...
  update every 1 steps, delay 0 steps, check yes
  max neighbors/atom: 2000, page size: 100000
  master list distance cutoff = 8.38
  ghost atom cutoff = 8.38
  2 neighbor lists, perpetual/occasional/extra = 2 0 0
  (1) pair meam, perpetual
      attributes: full, newton on
      pair build: full/nsq
      stencil: none
      bin: none
  (2) pair meam, perpetual, half/full from (1)
      attributes: half, newton on
      pair build: halffull/newton
      stencil: none
      bin: none
Per MPI rank memory allocation (min/avg/max) = 10.2 | 10.2 | 10.2 Mbytes
   Step          Temp          PotEng         Press           Pxx            Pyy            Pzz            Pxy            Pxz            Pyz             Lx             Ly             Lz           Volume    
         1   0             -653.44         4.1993611      4.9899909      3.8040439      3.8040486      8.788331e-06   1.0254485e-05  6.6748372e-06  9.0759909      9.076          9.076          747.62364    
         2   0             -653.44         4.1992582      4.9898893      3.8039382      3.8039471      1.1748509e-06 -1.7838803e-06  1.4055406e-07  9.0759909      9.076          9.076          747.62364    
         3   0             -653.44         4.1991812      4.9898182      3.8038628      3.8038626      3.4578111e-06  1.0620174e-06 -8.3882106e-07  9.0759909      9.076          9.076          747.62364    
         4   0             -653.44         4.1991069      4.9897392      3.803791       3.8037905      1.629186e-06  -2.7364822e-08 -3.2047857e-07  9.0759909      9.076          9.076          747.62364    
         5   0             -653.44         4.1990753      4.9897086      3.8037595      3.8037579      1.1042457e-06 -7.8908923e-07 -3.812984e-07   9.0759909      9.076          9.076          747.62364    
         6   0             -653.44         4.1990514      4.9896854      3.8037353      3.8037334      8.0251579e-07 -1.109147e-06   1.1804108e-07  9.0759909      9.076          9.076          747.62364    
         7   0             -653.44         4.1990093      4.9896446      3.8036926      3.8036906      8.3352028e-07 -1.9026083e-06 -2.1775329e-07  9.0759909      9.076          9.076          747.62364    
         8   0             -653.44         4.1988861      4.9895262      3.8035676      3.8035645      2.7193626e-06 -3.8439593e-06 -1.5305397e-06  9.0759909      9.076          9.076          747.62364    
         9   0             -653.44         4.198385       4.9890492      3.8030548      3.8030509      8.631064e-06  -1.231935e-05  -2.8309004e-06  9.0759909      9.076          9.076          747.62364    
        10   0             -653.44         3.7990191      4.6143538      3.3909596      3.391744       0.0048563963  -0.0057298348  -0.00063187244  9.0759909      9.076          9.076          747.62364    
        11   0             -653.44013     -62.869762     -57.883057     -65.438142     -65.288086      0.81837304    -0.9397161     -0.11779998     9.0759909      9.076          9.076          747.62364    
        12   0             -653.44049     -243.74222     -227.46085     -252.17157     -251.59424      3.0374407     -3.458312      -0.45820499     9.0759909      9.076          9.076          747.62364    
        13   0             -653.44106     -538.73698     -504.14487     -556.67492     -555.39117      6.6817116     -7.5527109     -1.0528066      9.0759909      9.076          9.076          747.62364    
        14   0             -653.44183     -947.74042     -887.98309     -978.7529      -976.48526      11.774667     -13.22329      -1.9367152      9.0759909      9.076          9.076          747.62364    
        15   0             -653.4428      -1471.0675     -1379.4719     -1518.6347     -1515.096       18.348475     -20.478357     -3.1654213      9.0759909      9.076          9.076          747.62364    
        16   0             -653.44407     -2111.643      -1981.547      -2179.1787     -2174.2032      26.461096     -29.316613     -4.8958442      9.0759909      9.076          9.076          747.62364    
        17   0             -653.4465      -2895.3171     -2718.0787     -2987.0663     -2980.8062      36.341957     -39.665177     -7.828246       9.0759909      9.076          9.076          747.62364    
        18   0             -653.44929     -3073.6499     -2880.4344     -3173.7725     -3166.7429      37.024139     -40.762892     -5.7082091      9.0759909      9.076          9.076          747.62364    
        19   0             -653.45689     -3965.7294     -3704.5552     -4119.551      -4073.082       31.352261     -56.488368     -1.4676723      9.0759909      9.076          9.076          747.62364    
        20   0             -653.4637      -4970.5033     -4623.3572     -5166.9213     -5121.2315      34.805625     -67.429143     -8.366598       9.0759909      9.076          9.076          747.62364    
        21   0             -653.46925     -6120.8072     -5691.1785     -6371.4166     -6299.8264      38.398365     -80.429767     -10.896981      9.0759909      9.076          9.076          747.62364    
        22   0             -653.47652     -7514.6596     -6975.7591     -7831.101      -7737.1186      45.36415      -93.700122     -12.444976      9.0759909      9.076          9.076          747.62364    
        23   0             -653.47915     -7974.0308     -7390.4991     -8310.6847     -8220.9085      46.424761     -96.819126     -11.017743      9.0759909      9.076          9.076          747.62364    
        24   0             -653.48593     -10080.029     -9331.4812     -10530.242     -10378.365      53.390758     -112.94248     -10.007329      9.0759909      9.076          9.076          747.62364    
        25   0             -653.49687     -12523.25      -11585.946     -13086.316     -12897.489      64.264255     -84.511651     -15.397735      9.0759909      9.076          9.076          747.62364    
        26   0             -653.50242     -13378.146     -12373.968     -13970.861     -13789.609      67.027546     -63.866519     -26.829777      9.0759909      9.076          9.076          747.62364    
        27   0             -653.50631     -14736.295     -13628.179     -15394.998     -15185.709      64.952244     -2.6142586     -32.304567      9.0759909      9.076          9.076          747.62364    
        28   0             -653.5174      -17552.568     -16219.95      -18347.271     -18090.482      12.75829       299.2471      -33.016258      9.0759909      9.076          9.076          747.62364    
        29   0             -653.52134     -18106.178     -16718.552     -18926.748     -18673.233     -9.0663844      401.44203     -27.348421      9.0759909      9.076          9.076          747.62364    
        30   0             -653.52745     -20239.698     -18680.332     -21171.103     -20867.659     -131.00634      913.31776     -16.558699      9.0759909      9.076          9.076          747.62364    
        31   0             -653.53616     -22387.743     -20662.406     -23410.878     -23089.947     -325.535        1688.6095     -23.018104      9.0759909      9.076          9.076          747.62364    
        32   0             -653.54653     -23595.272     -21772.489     -24652.157     -24361.171     -521.32174      2518.5315     -51.066671      9.0759909      9.076          9.076          747.62364    
        33   0             -653.55749     -24510.864     -22600.444     -25603.24      -25328.909     -787.20183      3844.0423     -74.410988      9.0759909      9.076          9.076          747.62364    
        34   0             -653.57347     -24981.67      -22982.402     -26103.273     -25859.336     -1067.068       5496.0677     -96.333515      9.0759909      9.076          9.076          747.62364    
        35   0             -653.59818     -25006.962     -22907.956     -26166.777     -25946.153     -1354.7853      7385.2605     -121.95687      9.0759909      9.076          9.076          747.62364    
        36   0             -653.6325      -24529.62      -22313.573     -25762.262     -25513.025     -1632.8427      9236.8059     -147.02004      9.0759909      9.076          9.076          747.62364    
        37   0             -653.67569     -23501.952     -21140.249     -24882.904     -24482.702     -1886.4604      10677.443     -163.75696      9.0759909      9.076          9.076          747.62364    
        38   0             -653.72476     -21873.816     -19318.437     -23538.65      -22764.36      -2104.7127      11284.442     -162.83464      9.0759909      9.076          9.076          747.62364    
        39   0             -653.77396     -19577.362     -16751.539     -21742.272     -20238.275     -2280.5158      10646.167     -134.18138      9.0759909      9.076          9.076          747.62364    
        40   0             -653.81275     -16790.03      -13623.122     -19676.557     -17070.411     -2408.4408      8742.0834     -74.322079      9.0759909      9.076          9.076          747.62364    
        41   0             -653.83675     -14851.223     -11478.158     -18207.174     -14868.338     -2567.9543      7407.5297     -27.877605      9.0759909      9.076          9.076          747.62364    
        42   0             -653.85843     -14140.478     -10772.764     -17491.813     -14156.858     -2911.3771      7586.1641     -18.938754      9.0759909      9.076          9.076          747.62364    
        43   0             -653.87775     -13036.162     -9616.5198     -16521.242     -12970.723     -3303.5973      7041.5799      21.649445      9.0759909      9.076          9.076          747.62364    
        44   0             -653.89742     -12776.821     -9428.4285     -16062.91      -12839.124     -3919.3165      7372.5482      39.225283      9.0759909      9.076          9.076          747.62364    
        45   0             -653.91339     -11488.931     -8072.1216     -14887.262     -11507.409     -4087.5253      6229.3296      126.18543      9.0759909      9.076          9.076          747.62364    
        46   0             -653.93029     -11803.59      -8504.7299     -14774.26      -12131.78      -4585.0138      7042.7737      119.21314      9.0759909      9.076          9.076          747.62364    
        47   0             -653.94454     -10530.656     -7186.4911     -13437.877     -10967.601     -4214.1512      6064.6255      215.70857      9.0759909      9.076          9.076          747.62364    
        48   0             -653.96244     -11526.85      -8302.6417     -13859.479     -12418.429     -4912.6172      7783.3203      143.0119       9.0759909      9.076          9.076          747.62364    
        49   0             -653.97993     -9966.4366     -6662.2824     -12157.756     -11079.272     -4016.473       7208.8091      232.41281      9.0759909      9.076          9.076          747.62364    
        50   0             -654.00676     -10539.458     -7215.6786     -12498.074     -11904.622     -4856.3952      9351.7044      157.50191      9.0759909      9.076          9.076          747.62364    
        51   0             -654.03813     -10760.628     -7356.1744     -12710.121     -12215.587     -5787.0222      11614.879      102.93795      9.0759909      9.076          9.076          747.62364    
        52   0             -654.07839     -9925.2537     -6373.9041     -11975.604     -11426.253     -6258.1647      13358.122      91.61188       9.0759909      9.076          9.076          747.62364    
        53   0             -654.12672     -8622.6037     -4881.2261     -10867.719     -10118.866     -6772.6181      14789.866      83.546421      9.0759909      9.076          9.076          747.62364    
        54   0             -654.18164     -6950.2751     -2967.0992     -9522.3782     -8361.3479     -7502.7777      15715.677      67.025588      9.0759909      9.076          9.076          747.62364    
        55   0             -654.24382     -4524.2147     -202.64493     -7632.7888     -5737.2104     -8411.0291      15772.071      47.274599      9.0759909      9.076          9.076          747.62364    
        56   0             -654.3005      -2000.3951      2662.1813     -5623.6477     -3039.7188     -9232.807       15428.26       31.472367      9.0759909      9.076          9.076          747.62364    
        57   0             -654.35221      207.02338      5143.6396     -3733.2155     -789.3539      -9757.472       15296.627      32.739531      9.0759909      9.076          9.076          747.62364    
        58   0             -654.40369      2514.126       7696.5844     -1631.064       1476.8576     -9845.8259      15044.643      74.456792      9.0759909      9.076          9.076          747.62364    
        59   0             -654.45359      5311.13        10746.423      982.13866      4204.8286     -9290.4301      14176.554      188.19489      9.0759909      9.076          9.076          747.62364    
        60   0             -654.49203      8448.7033      14121.124      3918.5486      7306.4374     -8054.9066      12518.772      376.09587      9.0759909      9.076          9.076          747.62364    
        61   0             -654.51778      10674.219      16454.212      5983.5091      9584.9349     -7023.6612      11171.554      502.8705       9.0759909      9.076          9.076          747.62364    
        62   0             -654.54446      11045.65       16734.763      6302.6805      10099.506     -7105.8382      11282.789      441.63059      9.0759909      9.076          9.076          747.62364    
        63   0             -654.56517      13052.257      18716.123      8277.2089      12163.438     -5682.8174      9679.5369      582.47316      9.0759909      9.076          9.076          747.62364    
        64   0             -654.57991      11504.58       17017.616      6819.8813      10676.243     -6670.6027      10977.747      404.95365      9.0759909      9.076          9.076          747.62364    
        65   0             -654.59936      12887.629      18364.992      8241.9094      12055.987     -5409.9798      9556.4337      482.7516       9.0759909      9.076          9.076          747.62364    
        66   0             -654.61567      10601.591      15997.444      6068.2986      9739.0295     -6690.6792      10937.425      303.87042      9.0759909      9.076          9.076          747.62364    
        67   0             -654.63542      11813.479      17237.58       7337.4511      10865.406     -5517.2796      9356.7104      401.30395      9.0759909      9.076          9.076          747.62364    
        68   0             -654.65245      11371.086      16886.02       6922.5617      10304.677     -5751.177       9119.2153      394.07709      9.0759909      9.076          9.076          747.62364    
        69   0             -654.6674       12062.113      17626.476      7605.0814      10954.783     -5347.8186      8021.965       416.1904       9.0759909      9.076          9.076          747.62364    
        70   0             -654.68878      11632.456      17252.087      7195.348       10449.933     -5958.0827      7882.0163      413.93548      9.0759909      9.076          9.076          747.62364    
        71   0             -654.70056      10817.922      16503.491      6475.7117      9474.562      -6854.6139      8369.2285      425.65412      9.0759909      9.076          9.076          747.62364    
        72   0             -654.72021      10939.124      16668.334      6611.6721      9537.3673     -7479.7509      8106.0734      455.18608      9.0759909      9.076          9.076          747.62364    
        73   0             -654.74822      12538.425      18216.281      8145.6898      11253.302     -7449.4625      6672.8343      559.22842      9.0759909      9.076          9.076          747.62364    
        74   0             -654.77346      13450.008      19138.92       9095.4662      12115.639     -7853.4305      5908.4064      657.2957       9.0759909      9.076          9.076          747.62364    
        75   0             -654.80392      13654.241      19413.182      9441.279       12108.263     -8673.6259      5943.1019      711.97491      9.0759909      9.076          9.076          747.62364    
        76   0             -654.83423      14954.271      20678.211      11018.864      13165.737     -8388.8374      5275.6603      867.00398      9.0759909      9.076          9.076          747.62364    
        77   0             -654.86563      16338.758      22023.552      12833.938      14158.783     -7738.4134      4728.3905      989.24755      9.0759909      9.076          9.076          747.62364    
        78   0             -654.90225      17948.528      23624.103      15105.786      15115.694     -6524.4381      4283.1726      1053.5536      9.0759909      9.076          9.076          747.62364    
        79   0             -654.94341      18924.935      24592.683      16707.369      15474.752     -5476.3709      4161.6987      965.42351      9.0759909      9.076          9.076          747.62364    
        80   0             -654.9779       19989.036      25642.226      18158.91       16165.97      -4009.6229      3667.5023      947.10703      9.0759909      9.076          9.076          747.62364    
        81   0             -655.00973      20042.566      25663.831      18485.76       15978.106     -3154.0542      3900.492       853.3148       9.0759909      9.076          9.076          747.62364    
        82   0             -655.04249      20698.07       26315.324      19345.856      16433.029     -1878.8641      3733.8672      835.34063      9.0759909      9.076          9.076          747.62364    
        83   0             -655.07752      21313.372      26941.535      20152.063      16846.518     -845.11328      3732.8933      818.85206      9.0759909      9.076          9.076          747.62364    
        84   0             -655.11488      22093.277      27760.287      21143.044      17376.502     -189.0126       3786.9509      801.27655      9.0759909      9.076          9.076          747.62364    
        85   0             -655.15304      23151.445      28900.448      22458.078      18095.81      -80.628867      3833.5768      790.9193       9.0759909      9.076          9.076          747.62364    
        86   0             -655.18957      24471.56       30356.761      24101.802      18956.118     -677.23054      3883.7126      789.15431      9.0759909      9.076          9.076          747.62364    
        87   0             -655.2231       25982.415      32057.085      26007.043      19883.117     -1947.1232      3938.3294      796.17688      9.0759909      9.076          9.076          747.62364    
        88   0             -655.24961      26894.031      33081.901      27179.073      20421.117     -2803.445       3949.8717      806.26128      9.0759909      9.076          9.076          747.62364    
        89   0             -655.27532      27298.292      33510.538      27695.272      20689.067     -2938.445       3864.2386      829.32898      9.0759909      9.076          9.076          747.62364    
        90   0             -655.30216      27684.513      33941.985      28162.998      20948.556     -2995.449       3727.5923      893.74702      9.0759909      9.076          9.076          747.62364    
        91   0             -655.33328      28038.678      34386.434      28560.531      21169.069     -2902.9354      3523.7258      1088.8725      9.0759909      9.076          9.076          747.62364    
        92   0             -655.37526      28570.026      35119.335      29086.196      21504.547     -2646.3806      3163.2724      1458.0154      9.0759909      9.076          9.076          747.62364    
        93   0             -655.41815      29236.52       36047.173      29676.667      21985.721     -2234.6956      2771.1422      1807.1349      9.0759909      9.076          9.076          747.62364    
        94   0             -655.46694      30279.395      37399.538      30574.357      22864.29      -1784.05        2380.2435      2124.6336      9.0759909      9.076          9.076          747.62364    
        95   0             -655.52385      31838.423      39296.424      31897.45       24321.394     -1367.7582      2143.9607      2411.9001      9.0759909      9.076          9.076          747.62364    
        96   0             -655.58814      34082.475      41881.649      33785.208      26580.568     -1100.285       2275.804       2680.3162      9.0759909      9.076          9.076          747.62364    
        97   0             -655.65463      37184.563      45292.721      36381.962      29879.005     -1163.3277      2957.6694      2895.3166      9.0759909      9.076          9.076          747.62364    
        98   0             -655.7077       40685.95       49005.567      39326.752      33725.529     -1669.9613      3878.6887      2981.8065      9.0759909      9.076          9.076          747.62364    
        99   0             -655.74503      43856.881      52289.385      42059.525      37221.734     -2418.8682      4224.9258      2919.9252      9.0759909      9.076          9.076          747.62364    
       100   0             -655.77852      45218.203      53719.227      43367.715      38567.668     -2691.814       3327.7081      2790.9319      9.0759909      9.076          9.076          747.62364    
       101   0             -655.81083      45643.899      54166.711      43923.447      38841.538     -2603.945       2761.9601      2745.9289      9.0759909      9.076          9.076          747.62364    
       102   0             -655.84155      46509.621      54946.032      44766.326      39816.506     -2967.6426      2811.9141      2687.3011      9.0759909      9.076          9.076          747.62364    
       103   0             -655.87261      44555.216      53096.584      43219.518      37349.547     -1873.1281      1978.774       2636.3072      9.0759909      9.076          9.076          747.62364    
       104   0             -655.90669      47052.412      55385.267      45380.034      40391.935     -2672.3474      2520.3833      2555.5099      9.0759909      9.076          9.076          747.62364    
       105   0             -655.93424      46592.457      54951.947      44970.748      39854.677     -2086.1265      2424.7926      2451.8862      9.0759909      9.076          9.076          747.62364    
       106   0             -655.95964      47423.572      55787.769      45726.352      40756.595     -1558.4724      2210.8345      2368.0209      9.0759909      9.076          9.076          747.62364    
       107   0             -655.98531      47705.259      56072.168      45999.045      41044.564     -1031.9825      2066.7499      2250.7055      9.0759909      9.076          9.076          747.62364    
       108   0             -656.01207      48698.961      57057.586      47000.12       42039.177     -545.87343      1743.7232      2152.5144      9.0759909      9.076          9.076          747.62364    
       109   0             -656.04008      49438.23       57787.696      47847.253      42679.742     -290.76348      1511.6389      2027.6938      9.0759909      9.076          9.076          747.62364    
       110   0             -656.06972      50603.878      58948.321      49189.239      43674.074     -253.74224      1230.2801      1918.3281      9.0759909      9.076          9.076          747.62364    
       111   0             -656.10314      51610.606      59971.212      50477.719      44382.888     -523.33419      1168.153       1798.9919      9.0759909      9.076          9.076          747.62364    
       112   0             -656.14101      53002.971      61423.207      52100.321      45485.384     -681.9925       1174.594       1730.6107      9.0759909      9.076          9.076          747.62364    
       113   0             -656.18025      53257.881      61752.878      52466.731      45554.034     -1146.4976      1394.0206      1605.8253      9.0759909      9.076          9.076          747.62364    
       114   0             -656.21988      55575.569      64194.234      54669.08       47863.394     -946.46812      409.42687      1616.038       9.0759909      9.076          9.076          747.62364    
       115   0             -656.26673      55405.038      64126.702      54384.375      47704.037     -1852.9987      233.61791      1459.5472      9.0759909      9.076          9.076          747.62364    
       116   0             -656.31335      57668.806      66550.124      56396.282      50060.013     -1728.4196     -965.13586      1458.2535      9.0759909      9.076          9.076          747.62364    
       117   0             -656.35963      59491.334      68493.127      57890.189      52090.686     -1930.2228     -1386.1339      1458.7137      9.0759909      9.076          9.076          747.62364    
       118   0             -656.40572      61636.851      70731.063      59590.851      54588.639     -2157.0659     -1066.2235      1509.4865      9.0759909      9.076          9.076          747.62364    
       119   0             -656.44736      64150.618      73294.197      61561.893      57595.763     -2279.9894     -228.34477      1641.9151      9.0759909      9.076          9.076          747.62364    
       120   0             -656.48505      65830.672      74971.194      62865.017      59655.806     -2363.2998      164.30549      1794.5998      9.0759909      9.076          9.076          747.62364    
       121   0             -656.52923      67235.981      76328.021      64109.737      61270.184     -2101.9123     -439.81784      1908.8         9.0759909      9.076          9.076          747.62364    
       122   0             -656.58127      68566.344      77527.205      65351.507      62820.32      -1780.6905     -1023.9444      1946.1529      9.0759909      9.076          9.076          747.62364    
       123   0             -656.63907      70691.544      79500.984      67576.277      64997.371     -623.32752     -2417.0215      1939.8513      9.0759909      9.076          9.076          747.62364    
       124   0             -656.69275      71611.619      80249.718      68558.341      66026.797     -387.60647     -2993.6939      1895.8034      9.0759909      9.076          9.076          747.62364    
       125   0             -656.74343      73766.9        82266.822      70808.699      68225.18       553.01705     -3953.7937      1880.4319      9.0759909      9.076          9.076          747.62364    
       126   0             -656.79179      74972.375      83321.606      71960.099      69635.421      467.43838     -4039.0423      1898.6151      9.0759909      9.076          9.076          747.62364    
       127   0             -656.83897      77050.627      85267.749      73907.822      71976.311      739.38451     -3882.9311      1985.4451      9.0759909      9.076          9.076          747.62364    
       128   0             -656.88199      78300.412      86375.638      74911.346      73614.25       606.63904     -3358.0536      2132.4535      9.0759909      9.076          9.076          747.62364    
       129   0             -656.91868      79796.679      87729.718      76279.846      75380.472      1305.3989     -3560.2148      2225.6228      9.0759909      9.076          9.076          747.62364    
       130   0             -656.95374      80340.362      88083.73       76653.226      76284.13       1167.7786     -3503.5013      2334.6848      9.0759909      9.076          9.076          747.62364    
       131   0             -656.9893       82532.432      90138.054      78811.166      78648.075      2224.2096     -4059.643       2374.088       9.0759909      9.076          9.076          747.62364    
       132   0             -657.02739      81804.452      89116.128      77812.273      78484.955      953.42156     -3851.3087      2523.74        9.0759909      9.076          9.076          747.62364    
       133   0             -657.06667      86070.218      93307.263      82102.731      82800.661      2988.5507     -4825.9929      2451.726       9.0759909      9.076          9.076          747.62364    
       134   0             -657.10372      85542.14       92492.201      81346.556      82787.661      1950.8841     -4879.5783      2636.8391      9.0759909      9.076          9.076          747.62364    
       135   0             -657.1366       87616.932      94455.621      83378.459      85016.715      2197.3106     -5359.7959      2539.4764      9.0759909      9.076          9.076          747.62364    
       136   0             -657.16885      86478.995      92989.737      82199.779      84247.469      852.831       -5398.6084      2604.3464      9.0759909      9.076          9.076          747.62364    
       137   0             -657.20344      91219.919      97778.477      87064.113      88817.166      1317.6592     -6343.7894      2252.6582      9.0759909      9.076          9.076          747.62364    
       138   0             -657.23742      90745.164      96974.917      86619.868      88640.707      508.87938     -5960.3939      2202.4886      9.0759909      9.076          9.076          747.62364    
       139   0             -657.2662       92148.675      98236.411      87881.351      90328.264      115.42735     -6721.2834      1839.6051      9.0759909      9.076          9.076          747.62364    
       140   0             -657.2898       91108.327      96989.715      87014.283      89320.983      2028.722      -5411.6062      1760.2309      9.0759909      9.076          9.076          747.62364    
       141   0             -657.31615      94799.678      100618.98      90533.914      93246.143      81.479054     -6477.8448      1473.1908      9.0759909      9.076          9.076          747.62364    
       142   0             -657.34065      94148.886      99778.324      90082.311      92586.024      1018.4407     -5930.9485      1269.1671      9.0759909      9.076          9.076          747.62364    
       143   0             -657.36417      96188.605      101712.45      92230.348      94623.022      1552.7979     -5680.9739      966.85264      9.0759909      9.076          9.076          747.62364    
       144   0             -657.38758      95531.801      100883.87      91805.412      93906.117      1515.7964     -5374.9295      871.17735      9.0759909      9.076          9.076          747.62364    
       145   0             -657.41197      98720.929      103981.48      95212.09       96969.216      2053.9571     -5131.7737      466.31599      9.0759909      9.076          9.076          747.62364    
       146   0             -657.43676      97691.833      102756.92      94555.615      95762.966      2316.2233     -4660.0897      374.41616      9.0759909      9.076          9.076          747.62364    
       147   0             -657.4625       101021.38      105952.41      98308.045      98803.68       2735.6334     -4625.3186     -76.72371       9.0759909      9.076          9.076          747.62364    
       148   0             -657.48962      99422.006      104122.47      97320.004      96823.54       3514.9651     -4240.1747     -132.64283      9.0759909      9.076          9.076          747.62364    
       149   0             -657.51943      104561.56      109059.99      103166.02      101458.66      4017.9957     -4462.6275     -645.84424      9.0759909      9.076          9.076          747.62364    
       150   0             -657.54646      103257.32      107619.14      102398.11      99754.711      4626.9773     -4490.3858     -595.45967      9.0759909      9.076          9.076          747.62364    
       151   0             -657.57001      103601.51      107839.04      102990.38      99975.102      5245.543      -4282.5738     -583.70027      9.0759909      9.076          9.076          747.62364    
       152   0             -657.59344      104732.05      108876.75      104371.24      100948.15      4844.9936     -4683.7797     -682.28929      9.0759909      9.076          9.076          747.62364    
       153   0             -657.61635      105275.62      109278.46      105190.76      101357.63      6130.0137     -4039.6168     -642.49199      9.0759909      9.076          9.076          747.62364    
       154   0             -657.63918      105518.38      109492.58      105592.22      101470.34      5859.2738     -4704.1423     -620.85915      9.0759909      9.076          9.076          747.62364    
       155   0             -657.66084      107128.32      110967.75      107396.46      103020.77      6639.8472     -3910.0115     -640.32728      9.0759909      9.076          9.076          747.62364    
       156   0             -657.68203      106482.23      110384.09      106773.61      102289         5906.4495     -5039.0635     -462.14562      9.0759909      9.076          9.076          747.62364    
       157   0             -657.70539      108311.5       112083.16      108765.1       104086.24      6614.2997     -4186.7305     -451.51811      9.0759909      9.076          9.076          747.62364    
       158   0             -657.72904      108684.04      112471.26      109148.59      104432.28      6101.6792     -4585.6236     -345.75313      9.0759909      9.076          9.076          747.62364    
       159   0             -657.75493      110387.43      114074.87      110956.77      106130.65      6313.8563     -3986.6003     -301.53042      9.0759909      9.076          9.076          747.62364    
       160   0             -657.78129      110629.19      114374.22      111163.86      106349.49      5235.7625     -4589.163      -213.75815      9.0759909      9.076          9.076          747.62364    
       161   0             -657.80909      112663.77      116255.9       113411.96      108323.44      5534.3732     -3898.78       -269.20309      9.0759909      9.076          9.076          747.62364    
       162   0             -657.83398      113355.76      116926.01      114263.43      108877.84      5036.8073     -4234.2922     -239.45838      9.0759909      9.076          9.076          747.62364    
       163   0             -657.8605       115953.12      119251.83      117424.7       111182.84      6243.0708     -3393.3078     -333.22223      9.0759909      9.076          9.076          747.62364    
       164   0             -657.88197      115584.84      118978.66      117110.15      110665.72      5157.6135     -4353.8015     -106.52977      9.0759909      9.076          9.076          747.62364    
       165   0             -657.90882      118054.62      121178.77      120133.07      112852         6667.8685     -3351.0488      26.947917      9.0759909      9.076          9.076          747.62364    
       166   0             -657.93259      118023.12      121143.21      119978.96      112947.2       5738.0021     -3986.1117      433.23168      9.0759909      9.076          9.076          747.62364    
       167   0             -657.95515      119841.63      122739.55      122070.38      114714.97      7529.2707     -2701.2466      653.65106      9.0759909      9.076          9.076          747.62364    
       168   0             -657.97879      120212.61      123013.47      122274.6       115349.75      6751.5504     -3485.7694      1045.5064      9.0759909      9.076          9.076          747.62364    
       169   0             -658.00076      120378         123235.02      122294.91      115604.07      8274.1617     -2412.8716      1319.0936      9.0759909      9.076          9.076          747.62364    
       170   0             -658.02152      122379.34      124940.84      124306.56      117890.63      6623.7388     -4052.521       1844.7124      9.0759909      9.076          9.076          747.62364    
       171   0             -658.04572      122695.28      125280.8       124401.56      118403.47      7473.7282     -3248.8943      2224.2271      9.0759909      9.076          9.076          747.62364    
       172   0             -658.05195      121635.61      124491.53      123155.36      117259.94      9689.4506     -1490.9736      2198.7523      9.0759909      9.076          9.076          747.62364    
       173   0             -658.07874      122545.17      125448.83      123857.2       118329.48      10526.08      -1045.2273      2703.1775      9.0759909      9.076          9.076          747.62364    
       174   0             -658.08667      123377.13      126049.86      124697.33      119384.2       8443.1928     -2412.6106      2909.738       9.0759909      9.076          9.076          747.62364    
       175   0             -658.10838      123698.43      126526.78      124738.38      119830.13      8440.6423     -1570.5207      3242.2697      9.0759909      9.076          9.076          747.62364    
       176   0             -658.11973      123678.59      126864.69      124518.65      119652.43      11266.796     -148.60387      3362.3822      9.0759909      9.076          9.076          747.62364    
       177   0             -658.13543      124299.11      127604.79      124851.94      120440.61      12023.556     -121.38462      3650.6484      9.0759909      9.076          9.076          747.62364    
       178   0             -658.14947      124376.36      127481.38      124775.37      120872.33      9921.0013     -841.3875       3758.0442      9.0759909      9.076          9.076          747.62364    
       179   0             -658.1652       124502.54      127892.93      124693.46      120921.22      10058.236      321.03815      3919.3132      9.0759909      9.076          9.076          747.62364    
       180   0             -658.18069      125854.54      129347.88      125878.08      122337.65      10802.651     -399.25748      4175.0021      9.0759909      9.076          9.076          747.62364    
       181   0             -658.19751      125202.31      128893.78      124791.61      121921.55      10695.781      160.68089      4128.0317      9.0759909      9.076          9.076          747.62364    
       182   0             -658.21215      126295.5       130044.58      125906.72      122935.21      9516.0224      507.48305      4278.03        9.0759909      9.076          9.076          747.62364    
       183   0             -658.22932      125849.3       129878.98      124966.08      122702.84      10458.867      495.79202      4153.6496      9.0759909      9.076          9.076          747.62364    
       184   0             -658.24614      126438.6       130512.91      125404.52      123398.37      9412.6294      462.67205      4319.4354      9.0759909      9.076          9.076          747.62364    
       185   0             -658.26407      126562.61      130942.14      125259.77      123485.91      9815.8611      822.13474      4124.2437      9.0759909      9.076          9.076          747.62364    
       186   0             -658.2847       127370         131724.33      125967.79      124417.87      8720.7832      463.86242      4395.4213      9.0759909      9.076          9.076          747.62364    
       187   0             -658.30797      127492.21      132146.95      125821.66      124508.02      8586.6319      759.07803      4181.4942      9.0759909      9.076          9.076          747.62364    
       188   0             -658.33494      128444.39      133059.1       126757.42      125516.64      7634.565       270.52783      4378.9161      9.0759909      9.076          9.076          747.62364    
       189   0             -658.3624       128859.67      133782.8       126895.34      125900.87      7383.6734      817.89496      3985.632       9.0759909      9.076          9.076          747.62364    
       190   0             -658.38853      129601.2       134401.29      127600.5       126801.82      6401.144       393.43305      4394.8184      9.0759909      9.076          9.076          747.62364    
       191   0             -658.41434      130395.26      135423.23      128199.96      127562.59      6202.1395      641.84028      4162.8213      9.0759909      9.076          9.076          747.62364    
       192   0             -658.43996      131116.51      136142.39      128836.69      128370.44      5678.8245      406.31211      4414.3799      9.0759909      9.076          9.076          747.62364    
       193   0             -658.46684      132069.72      137339.81      129604.39      129264.95      5800.1769      799.36327      4130.4363      9.0759909      9.076          9.076          747.62364    
       194   0             -658.49499      132840.88      138048.79      130334.84      130139         5350.0458      436.2792       4609.7982      9.0759909      9.076          9.076          747.62364    
       195   0             -658.52287      133988.68      139529.91      131287.87      131148.25      5855.133       1181.4915      4135.0506      9.0759909      9.076          9.076          747.62364    
       196   0             -658.55091      134715.98      140200.73      131987.57      131959.64      5446.0278      896.53919      4633.0292      9.0759909      9.076          9.076          747.62364    
       197   0             -658.57869      136021.76      141817.26      133141.92      133106.11      5986.8376      1778.9273      4161.5362      9.0759909      9.076          9.076          747.62364    
       198   0             -658.60719      136787.27      142505.09      133883.11      133973.59      5530.4691      1346.2982      4819.2225      9.0759909      9.076          9.076          747.62364    
       199   0             -658.63614      138341.73      144425         135274.97      135325.23      6301.1688      2405.6415      4281.426       9.0759909      9.076          9.076          747.62364    
       200   0             -658.66702      139266.62      145304.46      136124.13      136371.26      6035.5982      1847.8974      5035.2885      9.0759909      9.076          9.076          747.62364    
       201   0             -658.69962      141079.07      147536.15      137735.65      137965.42      7157.5667      3040.3851      4526.8409      9.0759909      9.076          9.076          747.62364    
       202   0             -658.73416      142188.43      148588.59      138726.24      139250.44      7179.2152      2184.7414      5360.9528      9.0759909      9.076          9.076          747.62364    
       203   0             -658.7662       143864.53      150657.5       140209.51      140726.56      8247.2511      3245.8366      5038.6455      9.0759909      9.076          9.076          747.62364    
       204   0             -658.79624      145118.53      151917.39      141362.64      142075.57      8320.7302      2528.3106      5731.076       9.0759909      9.076          9.076          747.62364    
       205   0             -658.82645      146755.67      154114.9       142758.54      143393.57      8867.6107      3859.0998      5311.2529      9.0759909      9.076          9.076          747.62364    
       206   0             -658.85659      147991.83      155339.8       143868.62      144767.07      8001.7251      2348.8262      6372.9946      9.0759909      9.076          9.076          747.62364    
       207   0             -658.88681      149425.52      157454.4       144932.44      145889.73      8056.7719      3493.1958      6056.9865      9.0759909      9.076          9.076          747.62364    
       208   0             -658.91243      150393.03      158400.27      145644.56      147134.28      7341.2758      1983.6316      6830.2715      9.0759909      9.076          9.076          747.62364    
       209   0             -658.9351       151322.27      160031.25      146147.99      147787.57      7460.707       3455.7903      6378.8479      9.0759909      9.076          9.076          747.62364    
       210   0             -658.95555      152288.86      160965.58      146889.94      149011.06      7024.2687      2509.8534      6836.1051      9.0759909      9.076          9.076          747.62364    
       211   0             -658.97173      152633.12      161740.84      146857.31      149301.22      6809.1011      3008.9883      6786.8881      9.0759909      9.076          9.076          747.62364    
       212   0             -658.98564      153740.68      162570.32      147875.88      150775.83      6657.0756      2070.8616      6909.5231      9.0759909      9.076          9.076          747.62364    
       213   0             -659.0013       153865.3       163226.7       147606.46      150762.75      6450.5228      2746.0463      6703.83        9.0759909      9.076          9.076          747.62364    
       214   0             -659.01544      154614.19      163997.08      148154.83      151690.66      6223.3198      2520.0888      6798.2482      9.0759909      9.076          9.076          747.62364    
       215   0             -659.02804      154823.32      164770.42      147968.25      151731.28      6083.2114      2768.5686      6450.0147      9.0759909      9.076          9.076          747.62364    
       216   0             -659.04282      155825.08      165520.57      148910.96      153043.71      5786.2922      2667.2582      6682.5387      9.0759909      9.076          9.076          747.62364    
       217   0             -659.05604      156027.66      166096.05      148789.66      153197.28      5590.4122      2304.1909      6609.0153      9.0759909      9.076          9.076          747.62364    
       218   0             -659.06827      157207.37      167002.59      149950.28      154669.23      5351.4726      3285.5372      6683.2646      9.0759909      9.076          9.076          747.62364    
       219   0             -659.08185      157249.38      167456.2       149707.82      154584.13      5122.4083      2562.9689      6381.3116      9.0759909      9.076          9.076          747.62364    
       220   0             -659.09641      158178.35      168286.17      150564.77      155684.1       4873.8298      3232.5814      6311.5383      9.0759909      9.076          9.076          747.62364    
       221   0             -659.10908      158236.87      168593.43      150290.93      155826.24      4330.6478      2328.6244      6037.9899      9.0759909      9.076          9.076          747.62364    
       222   0             -659.12587      159537.86      169998.75      151604.19      157010.63      3829.3111      2379.5258      6148.3212      9.0759909      9.076          9.076          747.62364    
       223   0             -659.14019      161342.7       171554.05      153640.37      158833.7       4285.1605      3507.823       6105.0822      9.0759909      9.076          9.076          747.62364    
       224   0             -659.157        161732.75      172043.15      153846.43      159308.68      2529.1767      1817.7276      6362.3985      9.0759909      9.076          9.076          747.62364    
       225   0             -659.1707       163021.35      173902.49      155181.96      159979.58      1992.3607      2940.1168      5795.0152      9.0759909      9.076          9.076          747.62364    
       226   0             -659.18683      164616.05      175441.25      156869.61      161537.28      1500.7388      2581.3164      5990.5048      9.0759909      9.076          9.076          747.62364    
       227   0             -659.19594      165019.72      175194.87      157240.87      162623.42      1500.3106      1072.2595      6612.2035      9.0759909      9.076          9.076          747.62364    
       228   0             -659.20586      164947.05      175188         157246.79      162406.37      1484.4457      2344.3366      5697.0603      9.0759909      9.076          9.076          747.62364    
       229   0             -659.22382      166037.32      176135.92      158606.7       163369.34      909.52497      2910.3748      5563.7321      9.0759909      9.076          9.076          747.62364    
       230   0             -659.23415      167594.28      177350.35      160354.39      165078.09      557.8922       1291.8064      6415.761       9.0759909      9.076          9.076          747.62364    
       231   0             -659.24077      168422.01      178756.74      161206.05      165303.24      1067.94        1566.9241      5686.5625      9.0759909      9.076          9.076          747.62364    
       232   0             -659.25878      169624.08      180023.49      162291.56      166557.19      1218.8995      1212.3867      5706.2296      9.0759909      9.076          9.076          747.62364    
       233   0             -659.27132      169803.24      179196.88      162921.17      167291.66      546.82555      1054.6537      6797.2401      9.0759909      9.076          9.076          747.62364    
       234   0             -659.28199      169753.85      179018.35      163518.62      166724.57      1265.4345      2776.3615      6223.2192      9.0759909      9.076          9.076          747.62364    
       235   0             -659.30038      172120.29      181492.4       166366.6       168501.86      3298.1955      2575.4668      5507.3514      9.0759909      9.076          9.076          747.62364    
       236   0             -659.31261      173936.06      182835.53      168216.11      170756.53      2316.1241      400.47894      5826.5578      9.0759909      9.076          9.076          747.62364    
       237   0             -659.32381      175080.47      184485.71      169331.9       171423.79      1393.9381      800.71899      4382.7724      9.0759909      9.076          9.076          747.62364    
       238   0             -659.33718      175608.9       185610.74      169934.5       171281.48      3871.3483      3163.4521      3686.7962      9.0759909      9.076          9.076          747.62364    
       239   0             -659.352        177608.87      186408.15      172694.19      173724.28      5765.1693      2128.4385      4060.2215      9.0759909      9.076          9.076          747.62364    
       240   0             -659.36208      179213.89      187395.4       175078.94      175167.31      4025.0976      1091.7593      3289.93        9.0759909      9.076          9.076          747.62364    
       241   0             -659.37034      180455.79      189504.58      176693.52      175169.28      2797.7634      2099.4524      1436.7348      9.0759909      9.076          9.076          747.62364    
       242   0             -659.38226      182193.96      191466.72      178514.94      176600.21      2993.1328      1353.6815      1257.6059      9.0759909      9.076          9.076          747.62364    
       243   0             -659.38815      182927.41      191296.72      179395.09      178090.43      3589.2059      91.867002      2022.5605      9.0759909      9.076          9.076          747.62364    
       244   0             -659.39252      183151.15      191655.72      179735.77      178061.96      4159.1864      1582.5907      1286.0757      9.0759909      9.076          9.076          747.62364    
       245   0             -659.39922      183662.38      192612.12      180199.19      178175.83      4416.3337      2841.2578      550.84497      9.0759909      9.076          9.076          747.62364    
       246   0             -659.40533      184850.97      193177.05      181552         179823.87      4138.5046      144.54902      969.51842      9.0759909      9.076          9.076          747.62364    
       247   0             -659.41166      185745.76      194097.57      182851.13      180288.59      3574.5571     -1293.7101      93.063144      9.0759909      9.076          9.076          747.62364    
       248   0             -659.41545      185597.01      194707.2       182871.95      179211.87      3549.0864      1225.0068     -754.54947      9.0759909      9.076          9.076          747.62364    
       249   0             -659.41855      186142.57      195172.26      183656.46      179598.99      3799.7291      2638.762      -762.32909      9.0759909      9.076          9.076          747.62364    
       250   0             -659.42444      187119.49      195227.03      184945.8       181185.63      3864.0702     -12.623345     -1179.7133      9.0759909      9.076          9.076          747.62364    
       251   0             -659.43159      187687.48      195993.35      185750.39      181318.69      3815.8045     -713.1628      -2392.735       9.0759909      9.076          9.076          747.62364    
       252   0             -659.43567      187732.19      196720.85      185877.63      180598.11      3895.7055      1390.5614     -2433.3567      9.0759909      9.076          9.076          747.62364    
       253   0             -659.44016      188250.57      196922.41      186596.56      181232.76      4239.2491      1159.9182     -2022.582       9.0759909      9.076          9.076          747.62364    
       254   0             -659.44913      188662.35      196740.15      187286.86      181960.02      4523.1898     -501.8427      -2807.2678      9.0759909      9.076          9.076          747.62364    
       255   0             -659.45632      189440.88      198021.5       188307.04      181994.11      4633.1306      886.39461     -4314.7316      9.0759909      9.076          9.076          747.62364    
       256   0             -659.4641       190619.59      199033.8       189779.11      183045.84      4935.223       1016.2702     -4448.144       9.0759909      9.076          9.076          747.62364    
       257   0             -659.47006      191270.06      198840.51      190887.99      184081.67      5166.9988     -1139.1372     -4255.9571      9.0759909      9.076          9.076          747.62364    
       258   0             -659.47734      191919.19      199385.92      191920.14      184451.51      5450.4993     -1545.138      -4737.8571      9.0759909      9.076          9.076          747.62364    
       259   0             -659.486        192574.14      200910.25      192498.27      184313.92      5798.2656      1087.8709     -4945.119       9.0759909      9.076          9.076          747.62364    
       260   0             -659.49521      194114.99      202307.55      194568.99      185468.42      6017.785       1493.7772     -5728.892       9.0759909      9.076          9.076          747.62364    
       261   0             -659.50588      195289.44      202327.25      196558.62      186982.44      6367.3352     -1172.1043     -6128.2168      9.0759909      9.076          9.076          747.62364    
       262   0             -659.51631      196606.96      203344.8       198530.3       187945.78      6785.5224     -1697.1458     -6370.0582      9.0759909      9.076          9.076          747.62364    
       263   0             -659.53088      197493.49      204862.19      199547.21      188071.08      6763.7831      402.36426     -7001.2437      9.0759909      9.076          9.076          747.62364    
       264   0             -659.53991      198588.63      205280.69      201003.37      189481.83      6583.6204      203.98779     -6668.2973      9.0759909      9.076          9.076          747.62364    
       265   0             -659.54674      199598.02      205790.42      202636.57      190367.07      7048.4018     -464.09923     -6935.7623      9.0759909      9.076          9.076          747.62364    
       266   0             -659.55136      200549.06      206741.35      203983.4       190922.45      7645.0892     -956.33405     -8006.3026      9.0759909      9.076          9.076          747.62364    
       267   0             -659.55852      201125.16      207241.32      204763.33      191370.83      7794.1009     -761.16352     -8367.915       9.0759909      9.076          9.076          747.62364    
       268   0             -659.56055      201193.17      207269.23      204847.76      191462.53      7542.2166      15.85146      -7733.5929      9.0759909      9.076          9.076          747.62364    
       269   0             -659.56299      201355.43      207083.05      205073.97      191909.26      7658.0132     -240.23484     -8352.7627      9.0759909      9.076          9.076          747.62364    
       270   0             -659.56522      201438.24      207328.93      205080.23      191905.56      8274.2951     -581.635       -9629.4312      9.0759909      9.076          9.076          747.62364    
       271   0             -659.5675       201834.44      207988.57      205396.52      192118.24      9049.8839      104.21091     -9174.5081      9.0759909      9.076          9.076          747.62364    
       272   0             -659.56897      201990.85      207844.91      205771.46      192356.17      8872.1048      78.158939     -8642.2479      9.0759909      9.076          9.076          747.62364    
       273   0             -659.56987      201936.73      207587.55      205790.5       192432.14      8505.7842     -354.0831      -9235.3142      9.0759909      9.076          9.076          747.62364    
       274   0             -659.57095      201921.79      207664.21      205544.29      192556.86      8311.2697     -43.511072     -9222.5826      9.0759909      9.076          9.076          747.62364    
       275   0             -659.57212      202041.32      207888.7       205592.69      192642.57      8745.3146      167.58531     -8666.4492      9.0759909      9.076          9.076          747.62364    
       276   0             -659.57306      202271.96      208003.18      205888.28      192924.41      9452.9045     -453.59837     -8846.4017      9.0759909      9.076          9.076          747.62364    
       277   0             -659.57414      202519.12      208474.68      206195.1       192887.6       9553.8448      303.96207     -9245.603       9.0759909      9.076          9.076          747.62364    
       278   0             -659.57513      202609.06      208413.82      206321.55      193091.81      9290.0868      310.44441     -9122.1539      9.0759909      9.076          9.076          747.62364    
       279   0             -659.57702      202658.52      208207.17      206233.01      193535.38      9666.9197     -899.63278     -8968.1292      9.0759909      9.076          9.076          747.62364    
       280   0             -659.57942      202990.48      209109.42      206448.75      193413.26      10162.507      116.6677      -9202.028       9.0759909      9.076          9.076          747.62364    
       281   0             -659.58278      203598.57      209599.45      207160.44      194035.82      10110.026      152.45577     -8973.8662      9.0759909      9.076          9.076          747.62364    
       282   0             -659.58579      203918.43      209938.95      207563.61      194252.72      10189.355     -877.08757     -9220.7511      9.0759909      9.076          9.076          747.62364    
       283   0             -659.58937      204294.93      210305.29      207902.15      194677.37      10836.558     -532.86088     -9592.9269      9.0759909      9.076          9.076          747.62364    
       284   0             -659.59221      204514.89      210404.09      208030.45      195110.12      11478.527     -25.48811      -9676.6864      9.0759909      9.076          9.076          747.62364    
       285   0             -659.59528      204934.62      210864.3       208466.19      195473.37      12270.846     -194.99321     -10095.309      9.0759909      9.076          9.076          747.62364    
       286   0             -659.60115      205466.91      211324.02      209323.94      195752.77      12272.367     -1388.9619     -10584.11       9.0759909      9.076          9.076          747.62364    
       287   0             -659.60573      206138.77      211709.09      210214.54      196492.67      12188.7       -1112.7029     -10809.618      9.0759909      9.076          9.076          747.62364    
       288   0             -659.60997      206462.44      212715.83      210277.39      196394.11      12651.569      318.3478      -11091.571      9.0759909      9.076          9.076          747.62364    
       289   0             -659.61393      206850.91      213121.87      210587.74      196843.12      13302.433     -222.21541     -11021.231      9.0759909      9.076          9.076          747.62364    
       290   0             -659.61734      207109.56      212791.17      211201.95      197335.56      13276.177     -1336.6459     -10753.25       9.0759909      9.076          9.076          747.62364    
       291   0             -659.61937      207593.52      213555.31      211899.03      197326.22      13060.479     -721.38143     -11125.599      9.0759909      9.076          9.076          747.62364    
       292   0             -659.62245      208107.83      213984.98      212359.18      197979.32      12734.595     -715.01604     -11918.627      9.0759909      9.076          9.076          747.62364    
       293   0             -659.62642      208532.44      214420.03      212666.96      198510.34      12612.347     -629.14403     -11950.275      9.0759909      9.076          9.076          747.62364    
       294   0             -659.62813      208771.87      214831.85      212897.05      198586.7       12689.218     -251.28867     -11343.353      9.0759909      9.076          9.076          747.62364    
       295   0             -659.62891      208985.89      214873.57      213199.04      198885.06      12863.688     -724.89931     -11329.835      9.0759909      9.076          9.076          747.62364    
       296   0             -659.62963      208997.98      214984.26      213183.17      198826.51      12786.756     -411.16337     -11541.487      9.0759909      9.076          9.076          747.62364    
       297   0             -659.63036      208920.89      214771.85      213130.81      198860         12376.723      3.2567055     -11220.335      9.0759909      9.076          9.076          747.62364    
       298   0             -659.63109      209039.15      214773.96      213324.91      199018.59      12247.795     -482.32285     -11214.176      9.0759909      9.076          9.076          747.62364    
       299   0             -659.63159      209286.72      215238.1       213543.74      199078.31      12353.295     -380.84727     -11402.432      9.0759909      9.076          9.076          747.62364    
       300   0             -659.63201      209362.23      215197.7       213682.92      199206.07      12354.184     -91.790439     -11729.535      9.0759909      9.076          9.076          747.62364    
       301   0             -659.63233      209293.49      215049.25      213594.85      199236.37      12089.142     -281.69098     -11698.075      9.0759909      9.076          9.076          747.62364    
       302   0             -659.63258      209390.52      215309.24      213600.63      199261.67      11961.284     -140.11622     -11510.144      9.0759909      9.076          9.076          747.62364    
       303   0             -659.63281      209633.53      215454.6       213926.66      199519.32      12000.263     -91.029566     -11644.082      9.0759909      9.076          9.076          747.62364    
       304   0             -659.63305      209768.44      215490.13      214167.6       199647.58      11919.446     -105.30348     -11848.745      9.0759909      9.076          9.076          747.62364    
       305   0             -659.63319      209768.65      215634.16      214108.28      199563.52      11786.457      10.548774     -11819.4        9.0759909      9.076          9.076          747.62364    
       306   0             -659.6333       209803.66      215582.27      214140.28      199688.42      11774.13      -103.19823     -11820.343      9.0759909      9.076          9.076          747.62364    
       307   0             -659.63341      209936.65      215602.43      214362.51      199845.02      11801.447      28.791645     -11952.616      9.0759909      9.076          9.076          747.62364    
       308   0             -659.6335       210040.33      215737.07      214527.31      199856.61      11701.103      274.9267      -12015.528      9.0759909      9.076          9.076          747.62364    
       309   0             -659.63357      210073.67      215728.85      214556.56      199935.6       11661.523      172.35549     -11985.959      9.0759909      9.076          9.076          747.62364    
       310   0             -659.63363      210080.57      215766.72      214511.6       199963.38      11656.698      153.73016     -11989.533      9.0759909      9.076          9.076          747.62364    
       311   0             -659.63367      210093.51      215714.66      214536.19      200029.68      11601.409      223.36746     -12065.28       9.0759909      9.076          9.076          747.62364    
       312   0             -659.63371      210084.76      215675.96      214543.51      200034.82      11554.405      286.68589     -12130.745      9.0759909      9.076          9.076          747.62364    
       313   0             -659.63373      210069.31      215726.58      214499.03      199982.34      11539.604      295.10603     -12091.788      9.0759909      9.076          9.076          747.62364    
       314   0             -659.63375      210055.87      215678.86      214485.96      200002.79      11527.858      171.25737     -12079.083      9.0759909      9.076          9.076          747.62364    
       315   0             -659.63377      210044.39      215605.85      214499.26      200028.06      11483.599      271.82752     -12150.223      9.0759909      9.076          9.076          747.62364    
       316   0             -659.63378      210032.32      215632.33      214476.28      199988.36      11458.617      382.7325      -12159.071      9.0759909      9.076          9.076          747.62364    
       317   0             -659.6338       210004.47      215608.06      214442.77      199962.57      11454.855      285.62412     -12136.762      9.0759909      9.076          9.076          747.62364    
       318   0             -659.63381      209955.43      215510.95      214402.44      199952.9       11401.824      268.75762     -12138.419      9.0759909      9.076          9.076          747.62364    
[...]
       462   0             -659.68904      206781.04      212800.7       209371.6       198170.83      3676.6011     -579.09622     -12713.635      9.076          9.076          9.076          747.62439    
       463   0             -659.68904      206781.05      212800.67      209371.64      198170.82      3676.6454     -579.04726     -12713.693      9.076          9.076          9.076          747.62439    
       464   0             -659.68904      206781.06      212800.73      209371.63      198170.84      3676.659      -579.0887      -12713.662      9.076          9.076          9.076          747.62439    
       465   0             -659.68904      206781.1       212800.77      209371.64      198170.89      3676.6431     -579.10793     -12713.66       9.076          9.076          9.076          747.62439    
       466   0             -659.68904      206781.12      212800.75      209371.68      198170.94      3676.6216     -579.0402      -12713.743      9.076          9.076          9.076          747.62439    
       467   0             -659.68904      206781.13      212800.72      209371.68      198170.99      3676.6398     -579.07553     -12713.706      9.076          9.076          9.076          747.62439    
       468   0             -659.68904      206781.13      212800.77      209371.67      198170.96      3676.6487     -579.11732     -12713.698      9.076          9.076          9.076          747.62439    
       469   0             -659.68904      206781.17      212800.79      209371.71      198171.01      3676.6617     -579.10427     -12713.691      9.076          9.076          9.076          747.62439    
       470   0             -659.68904      206781.2       212800.8       209371.74      198171.07      3676.6636     -579.07101     -12713.699      9.076          9.076          9.076          747.62439    
       471   0             -659.68904      206781.25      212800.85      209371.77      198171.11      3676.66       -579.08477     -12713.719      9.076          9.076          9.076          747.62439    
       472   0             -659.68904      206781.27      212800.87      209371.79      198171.15      3676.6765     -579.12806     -12713.685      9.076          9.076          9.076          747.62439    
       473   0             -659.68904      206781.28      212800.87      209371.79      198171.17      3676.6771     -579.11143     -12713.705      9.076          9.076          9.076          747.62439    
       474   0             -659.68904      206781.28      212800.88      209371.79      198171.18      3676.659      -579.10875     -12713.703      9.076          9.076          9.076          747.62439    
       475   0             -659.68904      206781.3       212800.91      209371.81      198171.2       3676.6567     -579.1353      -12713.677      9.076          9.076          9.076          747.62439    
       476   0             -659.68904      206781.32      212800.91      209371.83      198171.22      3676.6718     -579.11967     -12713.692      9.076          9.076          9.076          747.62439    
       477   0             -659.68904      206781.33      212800.91      209371.84      198171.25      3676.6916     -579.1133      -12713.688      9.076          9.076          9.076          747.62439    
       478   0             -659.68904      206781.34      212800.94      209371.84      198171.25      3676.6968     -579.12381     -12713.691      9.076          9.076          9.076          747.62439    
       479   0             -659.68904      206781.35      212800.95      209371.85      198171.26      3676.6871     -579.12857     -12713.688      9.076          9.076          9.076          747.62439    
       480   0             -659.68904      206781.36      212800.94      209371.86      198171.29      3676.6768     -579.11643     -12713.684      9.076          9.076          9.076          747.62439    
       481   0             -659.68904      206781.36      212800.95      209371.86      198171.28      3676.672      -579.10725     -12713.704      9.076          9.076          9.076          747.62439    
       482   0             -659.68904      206781.37      212800.96      209371.86      198171.29      3676.6825     -579.12926     -12713.697      9.076          9.076          9.076          747.62439    
       483   0             -659.68904      206781.38      212800.97      209371.87      198171.31      3676.692      -579.13077     -12713.697      9.076          9.076          9.076          747.62439    
       484   0             -659.68904      206781.39      212800.97      209371.88      198171.32      3676.6846     -579.11732     -12713.707      9.076          9.076          9.076          747.62439    
       485   0             -659.68904      206781.39      212800.97      209371.87      198171.33      3676.681      -579.12901     -12713.7        9.076          9.076          9.076          747.62439    
       486   0             -659.68904      206781.39      212800.98      209371.87      198171.32      3676.6864     -579.13618     -12713.7        9.076          9.076          9.076          747.62439    
       487   0             -659.68904      206781.39      212800.97      209371.87      198171.33      3676.6936     -579.13442     -12713.694      9.076          9.076          9.076          747.62439    
       488   0             -659.68904      206781.4       212800.97      209371.88      198171.34      3676.6885     -579.13256     -12713.697      9.076          9.076          9.076          747.62439    
       489   0             -659.68904      206781.4       212800.98      209371.89      198171.34      3676.6887     -579.13943     -12713.7        9.076          9.076          9.076          747.62439    
       490   0             -659.68904      206781.4       212800.98      209371.89      198171.34      3676.6986     -579.14438     -12713.692      9.076          9.076          9.076          747.62439    
       491   0             -659.68904      206781.4       212800.98      209371.89      198171.34      3676.7028     -579.13679     -12713.694      9.076          9.076          9.076          747.62439    
       492   0             -659.68904      206781.4       212800.98      209371.88      198171.35      3676.703      -579.13793     -12713.692      9.076          9.076          9.076          747.62439    
       493   0             -659.68904      206781.41      212800.98      209371.89      198171.35      3676.6999     -579.14157     -12713.69       9.076          9.076          9.076          747.62439    
       494   0             -659.68904      206781.41      212800.98      209371.89      198171.35      3676.6971     -579.13743     -12713.694      9.076          9.076          9.076          747.62439    
       495   0             -659.68904      206781.41      212800.98      209371.89      198171.35      3676.6984     -579.13876     -12713.692      9.076          9.076          9.076          747.62439    
       496   0             -659.68904      206781.41      212800.98      209371.89      198171.35      3676.701      -579.14132     -12713.694      9.076          9.076          9.076          747.62439    
       497   0             -659.68904      206781.41      212800.98      209371.89      198171.36      3676.7039     -579.14083     -12713.695      9.076          9.076          9.076          747.62439    
       498   0             -659.68904      206781.41      212800.98      209371.89      198171.36      3676.7038     -579.13939     -12713.695      9.076          9.076          9.076          747.62439    
       499   0             -659.68904      206781.41      212800.98      209371.89      198171.36      3676.7032     -579.14001     -12713.696      9.076          9.076          9.076          747.62439    
       500   0             -659.68904      206781.41      212800.99      209371.89      198171.36      3676.705      -579.14259     -12713.693      9.076          9.076          9.076          747.62439    
       501   0             -659.68904      206781.42      212800.99      209371.9       198171.37      3676.7043     -579.13996     -12713.695      9.076          9.076          9.076          747.62439    
Loop time of 1.07861 on 1 procs for 500 steps with 64 atoms

99.6% CPU use with 1 MPI tasks x no OpenMP threads

Minimization stats:
  Stopping criterion = max iterations
  Energy initial, next-to-last, final = 
     -653.439999864312  -659.689039090583  -659.689039090583
  Force two-norm initial, final = 0.00061932427 1.640892e-06
  Force max component initial, final = 0.00013502438 5.0727128e-07
  Final line search alpha, max atom move = 1 5.0727128e-07
  Iterations, force evaluations = 500 751

MPI task timing breakdown:
Section |  min time  |  avg time  |  max time  |%varavg| %total
---------------------------------------------------------------
Pair    | 1.0685     | 1.0685     | 1.0685     |   0.0 | 99.06
Neigh   | 0.00091649 | 0.00091649 | 0.00091649 |   0.0 |  0.08
Comm    | 0.0031496  | 0.0031496  | 0.0031496  |   0.0 |  0.29
Output  | 0.0038341  | 0.0038341  | 0.0038341  |   0.0 |  0.36
Modify  | 0          | 0          | 0          |   0.0 |  0.00
Other   |            | 0.002253   |            |       |  0.21

Nlocal:             64 ave          64 max          64 min
Histogram: 1 0 0 0 0 0 0 0 0 0
Nghost:           1267 ave        1267 max        1267 min
Histogram: 1 0 0 0 0 0 0 0 0 0
Neighs:           6827 ave        6827 max        6827 min
Histogram: 1 0 0 0 0 0 0 0 0 0
FullNghs:        13654 ave       13654 max       13654 min
Histogram: 1 0 0 0 0 0 0 0 0 0

Total # of neighbors = 13654
Ave neighs/atom = 213.34375
Neighbor list builds = 2
Dangerous builds = 0

# Obtain new stress tensor

variable tmp equal pe
variable e1 equal ${tmp}
variable e1 equal -659.689039090583
variable tmp equal press
variable p1 equal ${tmp}
variable p1 equal 206781.416007501
variable tmp equal pxx
variable pxx1 equal ${tmp}
variable pxx1 equal 212800.986722674
variable tmp equal pyy
variable pyy1 equal ${tmp}
variable pyy1 equal 209371.895996625
variable tmp equal pzz
variable pzz1 equal ${tmp}
variable pzz1 equal 198171.365303204
variable tmp equal pxy
variable pxy1 equal ${tmp}
variable pxy1 equal 3676.70432721178
variable tmp equal pxz
variable pxz1 equal ${tmp}
variable pxz1 equal -579.139958956346
variable tmp equal pyz
variable pyz1 equal ${tmp}
variable pyz1 equal -12713.6946373939

# Compute elastic constant from pressure tensor

variable C1pos equal ${d1}
variable C1pos equal -21280098.6722723
variable C2pos equal ${d2}
variable C2pos equal -20937189.5996674
variable C3pos equal ${d3}
variable C3pos equal -19817136.5303253
variable C4pos equal ${d4}
variable C4pos equal 1271369.46373939
variable C5pos equal ${d5}
variable C5pos equal 57913.9958956346
variable C6pos equal ${d6}
variable C6pos equal -367670.432721178

# Combine positive and negative

variable C1${dir} equal 0.5*(${C1neg}+${C1pos})
variable C16 equal 0.5*(${C1neg}+${C1pos})
variable C16 equal 0.5*(21280107.7445745+${C1pos})
variable C16 equal 0.5*(21280107.7445745+-21280098.6722723)
variable C2${dir} equal 0.5*(${C2neg}+${C2pos})
variable C26 equal 0.5*(${C2neg}+${C2pos})
variable C26 equal 0.5*(20937198.0451654+${C2pos})
variable C26 equal 0.5*(20937198.0451654+-20937189.5996674)
variable C3${dir} equal 0.5*(${C3neg}+${C3pos})
variable C36 equal 0.5*(${C3neg}+${C3pos})
variable C36 equal 0.5*(19817115.215422+${C3pos})
variable C36 equal 0.5*(19817115.215422+-19817136.5303253)
variable C4${dir} equal 0.5*(${C4neg}+${C4pos})
variable C46 equal 0.5*(${C4neg}+${C4pos})
variable C46 equal 0.5*(-1271381.89654616+${C4pos})
variable C46 equal 0.5*(-1271381.89654616+1271369.46373939)
variable C5${dir} equal 0.5*(${C5neg}+${C5pos})
variable C56 equal 0.5*(${C5neg}+${C5pos})
variable C56 equal 0.5*(-57884.4591407506+${C5pos})
variable C56 equal 0.5*(-57884.4591407506+57913.9958956346)
variable C6${dir} equal 0.5*(${C6neg}+${C6pos})
variable C66 equal 0.5*(${C6neg}+${C6pos})
variable C66 equal 0.5*(367828.638183281+${C6pos})
variable C66 equal 0.5*(367828.638183281+-367670.432721178)

# Delete dir to make sure it is not reused

variable dir delete

# Output final values

variable C11all equal ${C11}
variable C11all equal 327.984757550061
variable C22all equal ${C22}
variable C22all equal 312.637611750513
variable C33all equal ${C33}
variable C33all equal 295.410452900454

variable C12all equal 0.5*(${C12}+${C21})
variable C12all equal 0.5*(167.669896950945+${C21})
variable C12all equal 0.5*(167.669896950945+168.739199250937)
variable C13all equal 0.5*(${C13}+${C31})
variable C13all equal 0.5*(153.942924249917+${C31})
variable C13all equal 0.5*(153.942924249917+153.36153030023)
variable C23all equal 0.5*(${C23}+${C32})
variable C23all equal 0.5*(142.24873854965+${C32})
variable C23all equal 0.5*(142.24873854965+139.396994348615)

variable C44all equal ${C44}
variable C44all equal 94.961517449934
variable C55all equal ${C55}
variable C55all equal 43.5591970507012
variable C66all equal ${C66}
variable C66all equal 79.1027310515055

variable C14all equal 0.5*(${C14}+${C41})
variable C14all equal 0.5*(3.53776679933071+${C41})
variable C14all equal 0.5*(3.53776679933071+1.74732869002037)
variable C15all equal 0.5*(${C15}+${C51})
variable C15all equal 0.5*(-3.67622150108218+${C51})
variable C15all equal 0.5*(-3.67622150108218+-4.11031826850012)
variable C16all equal 0.5*(${C16}+${C61})
variable C16all equal 0.5*(4.53615109995008+${C61})
variable C16all equal 0.5*(4.53615109995008+5.19075689848978)

variable C24all equal 0.5*(${C24}+${C42})
variable C24all equal 0.5*(2.12117289938033+${C42})
variable C24all equal 0.5*(2.12117289938033+-1.53395438997541)
variable C25all equal 0.5*(${C25}+${C52})
variable C25all equal 0.5*(-6.99061984941363+${C52})
variable C25all equal 0.5*(-6.99061984941363+-6.88675320009861)
variable C26all equal 0.5*(${C26}+${C62})
variable C26all equal 0.5*(4.22274900041521+${C62})
variable C26all equal 0.5*(4.22274900041521+3.31341920499108)

variable C34all equal 0.5*(${C34}+${C43})
variable C34all equal 0.5*(-3.10715975053608+${C43})
variable C34all equal 0.5*(-3.10715975053608+-4.0724833549466)
variable C35all equal 0.5*(${C35}+${C53})
variable C35all equal 0.5*(9.13304820097983+${C53})
variable C35all equal 0.5*(9.13304820097983+8.92075480220228)
variable C36all equal 0.5*(${C36}+${C63})
variable C36all equal 0.5*(-10.6574516501278+${C63})
variable C36all equal 0.5*(-10.6574516501278+-11.0251275445044)

variable C45all equal 0.5*(${C45}+${C54})
variable C45all equal 0.5*(8.19560567499138+${C54})
variable C45all equal 0.5*(8.19560567499138+7.91770472729695)
variable C46all equal 0.5*(${C46}+${C64})
variable C46all equal 0.5*(-6.21640338504221+${C64})
variable C46all equal 0.5*(-6.21640338504221+-5.62622959501459)
variable C56all equal 0.5*(${C56}+${C65})
variable C56all equal 0.5*(14.7683774420002+${C65})
variable C56all equal 0.5*(14.7683774420002+15.0843964444939)

# Average moduli for cubic crystals

variable C11cubic equal (${C11all}+${C22all}+${C33all})/3.0
variable C11cubic equal (327.984757550061+${C22all}+${C33all})/3.0
variable C11cubic equal (327.984757550061+312.637611750513+${C33all})/3.0
variable C11cubic equal (327.984757550061+312.637611750513+295.410452900454)/3.0
variable C12cubic equal (${C12all}+${C13all}+${C23all})/3.0
variable C12cubic equal (168.204548100941+${C13all}+${C23all})/3.0
variable C12cubic equal (168.204548100941+153.652227275073+${C23all})/3.0
variable C12cubic equal (168.204548100941+153.652227275073+140.822866449133)/3.0
variable C44cubic equal (${C44all}+${C55all}+${C66all})/3.0
variable C44cubic equal (94.961517449934+${C55all}+${C66all})/3.0
variable C44cubic equal (94.961517449934+43.5591970507012+${C66all})/3.0
variable C44cubic equal (94.961517449934+43.5591970507012+79.1027310515055)/3.0

variable bulkmodulus equal (${C11cubic}+2*${C12cubic})/3.0
variable bulkmodulus equal (312.010940733676+2*${C12cubic})/3.0
variable bulkmodulus equal (312.010940733676+2*154.226547275049)/3.0
variable shearmodulus1 equal ${C44cubic}
variable shearmodulus1 equal 72.5411485173802
variable shearmodulus2 equal (${C11cubic}-${C12cubic})/2.0
variable shearmodulus2 equal (312.010940733676-${C12cubic})/2.0
variable shearmodulus2 equal (312.010940733676-154.226547275049)/2.0
variable poissonratio equal 1.0/(1.0+${C11cubic}/${C12cubic})
variable poissonratio equal 1.0/(1.0+312.010940733676/${C12cubic})
variable poissonratio equal 1.0/(1.0+312.010940733676/154.226547275049)

# For Stillinger-Weber silicon, the analytical results
# are known to be (E. R. Cowley, 1988):
#               C11 = 151.4 GPa
#               C12 = 76.4 GPa
#               C44 = 56.4 GPa

print "========================================="
=========================================
print "Components of the Elastic Constant Tensor"
Components of the Elastic Constant Tensor
print "========================================="
=========================================

print "Elastic Constant C11all = ${C11all} ${cunits}"
Elastic Constant C11all = 327.984757550061 GPa
print "Elastic Constant C22all = ${C22all} ${cunits}"
Elastic Constant C22all = 312.637611750513 GPa
print "Elastic Constant C33all = ${C33all} ${cunits}"
Elastic Constant C33all = 295.410452900454 GPa

print "Elastic Constant C12all = ${C12all} ${cunits}"
Elastic Constant C12all = 168.204548100941 GPa
print "Elastic Constant C13all = ${C13all} ${cunits}"
Elastic Constant C13all = 153.652227275073 GPa
print "Elastic Constant C23all = ${C23all} ${cunits}"
Elastic Constant C23all = 140.822866449133 GPa

print "Elastic Constant C44all = ${C44all} ${cunits}"
Elastic Constant C44all = 94.961517449934 GPa
print "Elastic Constant C55all = ${C55all} ${cunits}"
Elastic Constant C55all = 43.5591970507012 GPa
print "Elastic Constant C66all = ${C66all} ${cunits}"
Elastic Constant C66all = 79.1027310515055 GPa

print "Elastic Constant C14all = ${C14all} ${cunits}"
Elastic Constant C14all = 2.64254774467554 GPa
print "Elastic Constant C15all = ${C15all} ${cunits}"
Elastic Constant C15all = -3.89326988479115 GPa
print "Elastic Constant C16all = ${C16all} ${cunits}"
Elastic Constant C16all = 4.86345399921993 GPa

print "Elastic Constant C24all = ${C24all} ${cunits}"
Elastic Constant C24all = 0.29360925470246 GPa
print "Elastic Constant C25all = ${C25all} ${cunits}"
Elastic Constant C25all = -6.93868652475612 GPa
print "Elastic Constant C26all = ${C26all} ${cunits}"
Elastic Constant C26all = 3.76808410270315 GPa

print "Elastic Constant C34all = ${C34all} ${cunits}"
Elastic Constant C34all = -3.58982155274134 GPa
print "Elastic Constant C35all = ${C35all} ${cunits}"
Elastic Constant C35all = 9.02690150159106 GPa
print "Elastic Constant C36all = ${C36all} ${cunits}"
Elastic Constant C36all = -10.8412895973161 GPa

print "Elastic Constant C45all = ${C45all} ${cunits}"
Elastic Constant C45all = 8.05665520114417 GPa
print "Elastic Constant C46all = ${C46all} ${cunits}"
Elastic Constant C46all = -5.9213164900284 GPa
print "Elastic Constant C56all = ${C56all} ${cunits}"
Elastic Constant C56all = 14.926386943247 GPa

print "========================================="
=========================================
print "Average properties for a cubic crystal"
Average properties for a cubic crystal
print "========================================="
=========================================

print "Bulk Modulus = ${bulkmodulus} ${cunits}"
Bulk Modulus = 206.821345094591 GPa
print "Shear Modulus 1 = ${shearmodulus1} ${cunits}"
Shear Modulus 1 = 72.5411485173802 GPa
print "Shear Modulus 2 = ${shearmodulus2} ${cunits}"
Shear Modulus 2 = 78.8921967293135 GPa
print "Poisson Ratio = ${poissonratio}"
Poisson Ratio = 0.330789675308483
variable length equal "lx"
print "Lattice constant (Angstroms) = ${length};"
Lattice constant (Angstroms) = 9.07599999684796;
Total wall time: 0:00:13
