ITEM: TIMESTEP
0
ITEM: NUMBER OF ATOMS
216
ITEM: BOX BOUNDS pp pp pp
0.0000000000000000e+00 9.0000000000000000e+00
0.0000000000000000e+00 9.0000000000000000e+00
0.0000000000000000e+00 9.0000000000000000e+00
ITEM: ATOMS id type element mass x y z
1 1 Ti 47.88 0 0 0
2 1 Ti 47.88 2.125 2.125 0
3 1 Ti 47.88 2.125 0 2.125
4 1 Ti 47.88 0 2.125 2.125
5 1 Ti 47.88 4.25 0 0
6 1 Ti 47.88 4.25 2.125 2.125
7 1 Ti 47.88 0 4.25 0
8 1 Ti 47.88 2.125 4.25 2.125
9 1 Ti 47.88 4.25 4.25 0
10 1 Ti 47.88 0 0 4.25
11 1 Ti 47.88 2.125 2.125 4.25
12 1 Ti 47.88 4.25 0 4.25
13 1 Ti 47.88 0 4.25 4.25
14 1 Ti 47.88 4.25 4.25 4.25
15 2 N 14.007 2.125 0 0
16 2 N 14.007 0 2.125 0
17 2 N 14.007 4.25 2.125 0
18 2 N 14.007 2.125 4.25 0
19 2 N 14.007 0 0 2.125
20 2 N 14.007 2.125 2.125 2.125
21 2 N 14.007 2.125 0 4.25
22 2 N 14.007 0 2.125 4.25
23 2 N 14.007 4.25 0 2.125
24 2 N 14.007 4.25 2.125 4.25
25 2 N 14.007 0 4.25 2.125
26 2 N 14.007 2.125 4.25 4.25
27 2 N 14.007 4.25 4.25 2.125
28 1 Ti 47.88 4.5 0 0
29 1 Ti 47.88 6.625 2.125 0
30 1 Ti 47.88 6.625 0 2.125
31 1 Ti 47.88 4.5 2.125 2.125
32 1 Ti 47.88 8.75 0 0
33 1 Ti 47.88 8.75 2.125 2.125
34 1 Ti 47.88 4.5 4.25 0
35 1 Ti 47.88 6.625 4.25 2.125
36 1 Ti 47.88 8.75 4.25 0
37 1 Ti 47.88 4.5 0 4.25
38 1 Ti 47.88 6.625 2.125 4.25
39 1 Ti 47.88 8.75 0 4.25
40 1 Ti 47.88 4.5 4.25 4.25
41 1 Ti 47.88 8.75 4.25 4.25
42 2 N 14.007 6.625 0 0
43 2 N 14.007 4.5 2.125 0
44 2 N 14.007 8.75 2.125 0
45 2 N 14.007 6.625 4.25 0
46 2 N 14.007 4.5 0 2.125
47 2 N 14.007 6.625 2.125 2.125
48 2 N 14.007 6.625 0 4.25
49 2 N 14.007 4.5 2.125 4.25
50 2 N 14.007 8.75 0 2.125
51 2 N 14.007 8.75 2.125 4.25
52 2 N 14.007 4.5 4.25 2.125
53 2 N 14.007 6.625 4.25 4.25
54 2 N 14.007 8.75 4.25 2.125
55 1 Ti 47.88 0 4.5 0
56 1 Ti 47.88 2.125 6.625 0
57 1 Ti 47.88 2.125 4.5 2.125
58 1 Ti 47.88 0 6.625 2.125
59 1 Ti 47.88 4.25 4.5 0
60 1 Ti 47.88 4.25 6.625 2.125
61 1 Ti 47.88 0 8.75 0
62 1 Ti 47.88 2.125 8.75 2.125
63 1 Ti 47.88 4.25 8.75 0
64 1 Ti 47.88 0 4.5 4.25
65 1 Ti 47.88 2.125 6.625 4.25
66 1 Ti 47.88 4.25 4.5 4.25
67 1 Ti 47.88 0 8.75 4.25
68 1 Ti 47.88 4.25 8.75 4.25
69 2 N 14.007 2.125 4.5 0
70 2 N 14.007 0 6.625 0
71 2 N 14.007 4.25 6.625 0
72 2 N 14.007 2.125 8.75 0
73 2 N 14.007 0 4.5 2.125
74 2 N 14.007 2.125 6.625 2.125
75 2 N 14.007 2.125 4.5 4.25
76 2 N 14.007 0 6.625 4.25
77 2 N 14.007 4.25 4.5 2.125
78 2 N 14.007 4.25 6.625 4.25
79 2 N 14.007 0 8.75 2.125
80 2 N 14.007 2.125 8.75 4.25
81 2 N 14.007 4.25 8.75 2.125
82 1 Ti 47.88 4.5 4.5 0
83 1 Ti 47.88 6.625 6.625 0
84 1 Ti 47.88 6.625 4.5 2.125
85 1 Ti 47.88 4.5 6.625 2.125
86 1 Ti 47.88 8.75 4.5 0
87 1 Ti 47.88 8.75 6.625 2.125
88 1 Ti 47.88 4.5 8.75 0
89 1 Ti 47.88 6.625 8.75 2.125
90 1 Ti 47.88 8.75 8.75 0
91 1 Ti 47.88 4.5 4.5 4.25
92 1 Ti 47.88 6.625 6.625 4.25
93 1 Ti 47.88 8.75 4.5 4.25
94 1 Ti 47.88 4.5 8.75 4.25
95 1 Ti 47.88 8.75 8.75 4.25
96 2 N 14.007 6.625 4.5 0
97 2 N 14.007 4.5 6.625 0
98 2 N 14.007 8.75 6.625 0
99 2 N 14.007 6.625 8.75 0
100 2 N 14.007 4.5 4.5 2.125
101 2 N 14.007 6.625 6.625 2.125
102 2 N 14.007 6.625 4.5 4.25
103 2 N 14.007 4.5 6.625 4.25
104 2 N 14.007 8.75 4.5 2.125
105 2 N 14.007 8.75 6.625 4.25
106 2 N 14.007 4.5 8.75 2.125
107 2 N 14.007 6.625 8.75 4.25
108 2 N 14.007 8.75 8.75 2.125
109 1 Ti 47.88 0 0 4.5
110 1 Ti 47.88 2.125 2.125 4.5
111 1 Ti 47.88 2.125 0 6.625
112 1 Ti 47.88 0 2.125 6.625
113 1 Ti 47.88 4.25 0 4.5
114 1 Ti 47.88 4.25 2.125 6.625
115 1 Ti 47.88 0 4.25 4.5
116 1 Ti 47.88 2.125 4.25 6.625
117 1 Ti 47.88 4.25 4.25 4.5
118 1 Ti 47.88 0 0 8.75
119 1 Ti 47.88 2.125 2.125 8.75
120 1 Ti 47.88 4.25 0 8.75
121 1 Ti 47.88 0 4.25 8.75
122 1 Ti 47.88 4.25 4.25 8.75
123 2 N 14.007 2.125 0 4.5
124 2 N 14.007 0 2.125 4.5
125 2 N 14.007 4.25 2.125 4.5
126 2 N 14.007 2.125 4.25 4.5
127 2 N 14.007 0 0 6.625
128 2 N 14.007 2.125 2.125 6.625
129 2 N 14.007 2.125 0 8.75
130 2 N 14.007 0 2.125 8.75
131 2 N 14.007 4.25 0 6.625
132 2 N 14.007 4.25 2.125 8.75
133 2 N 14.007 0 4.25 6.625
134 2 N 14.007 2.125 4.25 8.75
135 2 N 14.007 4.25 4.25 6.625
136 1 Ti 47.88 4.5 0 4.5
137 1 Ti 47.88 6.625 2.125 4.5
138 1 Ti 47.88 6.625 0 6.625
139 1 Ti 47.88 4.5 2.125 6.625
140 1 Ti 47.88 8.75 0 4.5
141 1 Ti 47.88 8.75 2.125 6.625
142 1 Ti 47.88 4.5 4.25 4.5
143 1 Ti 47.88 6.625 4.25 6.625
144 1 Ti 47.88 8.75 4.25 4.5
145 1 Ti 47.88 4.5 0 8.75
146 1 Ti 47.88 6.625 2.125 8.75
147 1 Ti 47.88 8.75 0 8.75
148 1 Ti 47.88 4.5 4.25 8.75
149 1 Ti 47.88 8.75 4.25 8.75
150 2 N 14.007 6.625 0 4.5
151 2 N 14.007 4.5 2.125 4.5
152 2 N 14.007 8.75 2.125 4.5
153 2 N 14.007 6.625 4.25 4.5
154 2 N 14.007 4.5 0 6.625
155 2 N 14.007 6.625 2.125 6.625
156 2 N 14.007 6.625 0 8.75
157 2 N 14.007 4.5 2.125 8.75
158 2 N 14.007 8.75 0 6.625
159 2 N 14.007 8.75 2.125 8.75
160 2 N 14.007 4.5 4.25 6.625
161 2 N 14.007 6.625 4.25 8.75
162 2 N 14.007 8.75 4.25 6.625
163 1 Ti 47.88 0 4.5 4.5
164 1 Ti 47.88 2.125 6.625 4.5
165 1 Ti 47.88 2.125 4.5 6.625
166 1 Ti 47.88 0 6.625 6.625
167 1 Ti 47.88 4.25 4.5 4.5
168 1 Ti 47.88 4.25 6.625 6.625
169 1 Ti 47.88 0 8.75 4.5
170 1 Ti 47.88 2.125 8.75 6.625
171 1 Ti 47.88 4.25 8.75 4.5
172 1 Ti 47.88 0 4.5 8.75
173 1 Ti 47.88 2.125 6.625 8.75
174 1 Ti 47.88 4.25 4.5 8.75
175 1 Ti 47.88 0 8.75 8.75
176 1 Ti 47.88 4.25 8.75 8.75
177 2 N 14.007 2.125 4.5 4.5
178 2 N 14.007 0 6.625 4.5
179 2 N 14.007 4.25 6.625 4.5
180 2 N 14.007 2.125 8.75 4.5
181 2 N 14.007 0 4.5 6.625
182 2 N 14.007 2.125 6.625 6.625
183 2 N 14.007 2.125 4.5 8.75
184 2 N 14.007 0 6.625 8.75
185 2 N 14.007 4.25 4.5 6.625
186 2 N 14.007 4.25 6.625 8.75
187 2 N 14.007 0 8.75 6.625
188 2 N 14.007 2.125 8.75 8.75
189 2 N 14.007 4.25 8.75 6.625
190 1 Ti 47.88 4.5 4.5 4.5
191 1 Ti 47.88 6.625 6.625 4.5
192 1 Ti 47.88 6.625 4.5 6.625
193 1 Ti 47.88 4.5 6.625 6.625
194 1 Ti 47.88 8.75 4.5 4.5
195 1 Ti 47.88 8.75 6.625 6.625
196 1 Ti 47.88 4.5 8.75 4.5
197 1 Ti 47.88 6.625 8.75 6.625
198 1 Ti 47.88 8.75 8.75 4.5
199 1 Ti 47.88 4.5 4.5 8.75
200 1 Ti 47.88 6.625 6.625 8.75
201 1 Ti 47.88 8.75 4.5 8.75
202 1 Ti 47.88 4.5 8.75 8.75
203 1 Ti 47.88 8.75 8.75 8.75
204 2 N 14.007 6.625 4.5 4.5
205 2 N 14.007 4.5 6.625 4.5
206 2 N 14.007 8.75 6.625 4.5
207 2 N 14.007 6.625 8.75 4.5
208 2 N 14.007 4.5 4.5 6.625
209 2 N 14.007 6.625 6.625 6.625
210 2 N 14.007 6.625 4.5 8.75
211 2 N 14.007 4.5 6.625 8.75
212 2 N 14.007 8.75 4.5 6.625
213 2 N 14.007 8.75 6.625 8.75
214 2 N 14.007 4.5 8.75 6.625
215 2 N 14.007 6.625 8.75 8.75
216 2 N 14.007 8.75 8.75 6.625
ITEM: TIMESTEP
100
ITEM: NUMBER OF ATOMS
216
ITEM: BOX BOUNDS pp pp pp
-4.5936462468532113e-05 9.0000459364624774e+00
-4.5936462468532113e-05 9.0000459364624774e+00
-4.5936462468532113e-05 9.0000459364624774e+00
ITEM: ATOMS id type element mass x y z
1 1 Ti 47.88 0.492244 0.875721 0.225664
2 1 Ti 47.88 2.05396 2.08831 0.561643
3 1 Ti 47.88 2.15889 0.59486 2.15887
4 1 Ti 47.88 0.622171 2.07632 2.19831
5 1 Ti 47.88 3.72506 0.521839 0.549592
6 1 Ti 47.88 3.66386 2.13528 2.15573
7 1 Ti 47.88 8.86372 3.71437 0.769129
8 1 Ti 47.88 2.05813 3.67253 2.2194
9 1 Ti 47.88 4.15437 3.92408 0.507405
10 1 Ti 47.88 9.10163 0.681961 4.16866
11 1 Ti 47.88 2.1398 2.15971 3.67036
12 1 Ti 47.88 3.7338 0.975331 3.7348
13 1 Ti 47.88 0.138572 4.52648 4.62275
14 1 Ti 47.88 3.40975 5.11969 4.51209
15 2 N 14.007 2.0695 8.38558 8.35293
16 2 N 14.007 8.39588 1.89312 8.37093
17 2 N 14.007 4.98207 2.18563 8.38361
18 2 N 14.007 2.02981 4.9307 8.30144
19 2 N 14.007 8.32918 8.40384 2.08112
20 2 N 14.007 2.13603 2.11664 2.12495
21 2 N 14.007 1.82435 8.51337 4.8937
22 2 N 14.007 8.2835 2.08557 4.87388
23 2 N 14.007 4.90359 8.41789 2.09622
24 2 N 14.007 4.93447 2.31605 4.96287
25 2 N 14.007 8.33125 4.83157 1.98358
26 2 N 14.007 2.20252 4.88364 4.94993
27 2 N 14.007 4.97551 4.9462 2.00005
28 1 Ti 47.88 5.00358 0.469809 0.904608
29 1 Ti 47.88 6.60994 2.12315 0.544519
30 1 Ti 47.88 6.59625 0.596841 2.08863
31 1 Ti 47.88 5.07178 2.13549 2.10125
32 1 Ti 47.88 1.02723 8.30684 0.427541
33 1 Ti 47.88 8.17371 2.10268 2.09629
34 1 Ti 47.88 5.77804 4.01513 0.264774
35 1 Ti 47.88 6.459 3.68125 2.03894
36 1 Ti 47.88 8.28481 2.96107 0.344934
37 1 Ti 47.88 4.57724 8.99565 3.49901
38 1 Ti 47.88 6.61895 2.16314 3.65906
39 1 Ti 47.88 8.06879 0.674528 3.46561
40 1 Ti 47.88 5.37454 3.68532 3.8558
41 1 Ti 47.88 8.59062 3.76403 4.96044
42 2 N 14.007 6.5789 8.37459 8.40577
43 2 N 14.007 3.9128 2.10596 8.31821
44 2 N 14.007 0.451195 2.19152 8.5012
45 2 N 14.007 6.5687 4.86702 8.21949
46 2 N 14.007 3.83542 8.29506 2.16666
47 2 N 14.007 6.63692 2.12232 2.13717
48 2 N 14.007 6.9962 8.29671 4.85939
49 2 N 14.007 3.85281 2.20602 4.8318
50 2 N 14.007 0.366696 8.26401 2.3238
51 2 N 14.007 0.340191 2.07715 4.93757
52 2 N 14.007 3.895 4.88667 1.93078
53 2 N 14.007 6.70603 4.7952 4.86194
54 2 N 14.007 0.415965 4.89942 2.02821
55 1 Ti 47.88 0.708515 5.44303 0.214706
56 1 Ti 47.88 2.14102 6.57058 0.591664
57 1 Ti 47.88 2.15584 5.0847 2.10778
58 1 Ti 47.88 0.598557 6.61368 2.08472
59 1 Ti 47.88 4.57353 5.46368 8.3352
60 1 Ti 47.88 3.64651 6.62749 2.11671
61 1 Ti 47.88 8.84101 8.61942 1.01517
62 1 Ti 47.88 2.07582 8.18346 2.15422
63 1 Ti 47.88 3.61215 8.09689 0.820579
64 1 Ti 47.88 9.2859 5.00563 3.71728
65 1 Ti 47.88 2.13637 6.61301 3.62694
66 1 Ti 47.88 4.09782 5.27275 3.43517
67 1 Ti 47.88 0.723191 7.71883 4.08923
68 1 Ti 47.88 3.8703 8.29724 3.87427
69 2 N 14.007 2.20597 3.87247 8.42233
70 2 N 14.007 8.26938 6.50974 8.3456
71 2 N 14.007 4.94193 6.62088 8.29678
72 2 N 14.007 2.19961 0.457628 8.39734
73 2 N 14.007 8.37138 3.76471 2.17331
74 2 N 14.007 2.13394 6.61286 2.12255
75 2 N 14.007 1.83066 3.88593 4.88516
76 2 N 14.007 8.39851 6.64997 4.92505
77 2 N 14.007 4.91828 3.88646 1.99952
78 2 N 14.007 5.02013 6.73223 4.89697
79 2 N 14.007 8.41127 0.457124 2.10262
80 2 N 14.007 2.08333 0.555047 4.80199
81 2 N 14.007 4.92261 0.468039 2.29636
82 1 Ti 47.88 4.83839 5.20514 0.638964
83 1 Ti 47.88 6.65694 6.64635 0.626064
84 1 Ti 47.88 6.70247 5.03825 2.19786
85 1 Ti 47.88 5.1086 6.68111 2.09772
86 1 Ti 47.88 0.355553 4.4095 0.405768
87 1 Ti 47.88 8.18514 6.62037 2.12707
88 1 Ti 47.88 5.30735 9.07937 8.73196
89 1 Ti 47.88 6.62235 8.17173 2.10268
90 1 Ti 47.88 7.79611 8.29106 0.352812
91 1 Ti 47.88 4.65838 4.1406 3.18296
92 1 Ti 47.88 6.58304 6.63483 3.69089
93 1 Ti 47.88 8.2312 5.55461 3.85867
94 1 Ti 47.88 5.42762 8.25294 3.7576
95 1 Ti 47.88 8.24699 8.11807 3.35978
96 2 N 14.007 7.06306 3.93254 8.14322
97 2 N 14.007 3.90368 6.73855 8.27356
98 2 N 14.007 0.319203 6.63717 8.2773
99 2 N 14.007 6.45477 0.430873 8.34117
100 2 N 14.007 3.86739 3.80861 2.0004
101 2 N 14.007 6.64929 6.60359 2.13269
102 2 N 14.007 6.94071 3.71968 4.83323
103 2 N 14.007 3.9657 6.51389 4.9677
104 2 N 14.007 0.419743 3.8793 2.34699
105 2 N 14.007 0.440349 6.44383 4.84973
106 2 N 14.007 3.86024 0.375674 2.17891
107 2 N 14.007 6.81765 0.337221 4.9474
108 2 N 14.007 0.461002 0.339659 2.3016
109 1 Ti 47.88 0.866544 0.640315 5.22233
110 1 Ti 47.88 2.11411 2.11207 5.07795
111 1 Ti 47.88 2.16684 0.60638 6.6601
112 1 Ti 47.88 0.560856 2.15445 6.69839
113 1 Ti 47.88 3.96103 7.8817 4.94191
114 1 Ti 47.88 3.64459 2.14259 6.55305
115 1 Ti 47.88 0.54801 3.29896 5.46541
116 1 Ti 47.88 2.1347 3.71074 6.68989
117 1 Ti 47.88 3.26803 3.61374 5.26956
118 1 Ti 47.88 0.805565 0.371316 8.07841
119 1 Ti 47.88 2.21843 2.15941 8.1538
120 1 Ti 47.88 3.64923 0.389424 8.16946
121 1 Ti 47.88 0.858704 3.88279 8.07524
122 1 Ti 47.88 3.87351 3.96269 8.25157
123 2 N 14.007 2.28768 8.37478 3.94465
124 2 N 14.007 8.31827 2.04909 3.80904
125 2 N 14.007 4.81801 2.18758 3.90258
126 2 N 14.007 2.02595 4.88142 3.84893
127 2 N 14.007 8.33688 8.24638 6.74332
128 2 N 14.007 2.12267 2.14518 6.63389
129 2 N 14.007 2.29792 8.29261 0.392821
130 2 N 14.007 8.35375 1.74805 0.437966
131 2 N 14.007 4.8827 8.34869 6.63107
132 2 N 14.007 4.94788 2.15939 0.441332
133 2 N 14.007 8.39284 4.95475 6.30125
134 2 N 14.007 2.17137 4.84365 0.368564
135 2 N 14.007 4.91038 4.8582 6.70445
136 1 Ti 47.88 4.8195 0.973743 4.89724
137 1 Ti 47.88 6.61518 2.02889 5.08038
138 1 Ti 47.88 6.6496 0.578299 6.66086
139 1 Ti 47.88 5.04839 2.11447 6.6455
140 1 Ti 47.88 8.31453 0.553398 5.30343
141 1 Ti 47.88 8.16499 2.09928 6.64687
142 1 Ti 47.88 4.7121 3.67627 4.56039
143 1 Ti 47.88 6.57772 3.65698 6.54446
144 1 Ti 47.88 8.53679 3.3308 3.87811
145 1 Ti 47.88 4.859 0.805651 7.8827
146 1 Ti 47.88 6.57627 2.03495 8.15092
147 1 Ti 47.88 7.71459 0.384317 8.38075
148 1 Ti 47.88 5.0037 3.52995 7.98892
149 1 Ti 47.88 7.80337 5.11176 0.232796
150 2 N 14.007 6.86333 8.41152 3.80346
151 2 N 14.007 3.78558 2.42833 3.75916
152 2 N 14.007 0.382849 2.06631 3.88504
153 2 N 14.007 6.36956 4.73704 3.8337
154 2 N 14.007 3.80861 8.39765 6.65545
155 2 N 14.007 6.59829 2.13221 6.63198
156 2 N 14.007 6.47206 8.22935 0.472868
157 2 N 14.007 3.87127 2.1128 0.38934
158 2 N 14.007 0.389643 8.36713 6.59442
159 2 N 14.007 0.354661 2.05098 0.590855
160 2 N 14.007 3.83772 4.91978 6.74175
161 2 N 14.007 6.38414 5.26836 0.177924
162 2 N 14.007 0.462183 4.8767 6.47426
163 1 Ti 47.88 0.954942 5.09618 5.05713
164 1 Ti 47.88 2.11314 6.64806 5.09774
165 1 Ti 47.88 2.1741 5.11466 6.60588
166 1 Ti 47.88 0.607794 6.62063 6.60573
167 1 Ti 47.88 4.4207 4.14667 5.37348
168 1 Ti 47.88 3.65458 6.63757 6.5958
169 1 Ti 47.88 0.155974 8.61855 4.0921
170 1 Ti 47.88 2.05728 8.13932 6.67095
171 1 Ti 47.88 3.12169 8.52602 5.2679
172 1 Ti 47.88 8.63797 4.50907 8.63752
173 1 Ti 47.88 2.11976 6.67624 8.13437
174 1 Ti 47.88 3.45197 5.02354 8.38288
175 1 Ti 47.88 8.91709 7.89226 8.40159
176 1 Ti 47.88 3.62643 8.09988 8.30146
177 2 N 14.007 2.271 3.83585 3.91511
178 2 N 14.007 8.43674 6.86278 3.86214
179 2 N 14.007 4.91466 6.68524 3.83072
180 2 N 14.007 2.01993 0.390766 3.75957
181 2 N 14.007 8.31054 3.91492 6.6184
182 2 N 14.007 2.11875 6.64879 6.62293
183 2 N 14.007 1.74969 3.85243 0.386845
184 2 N 14.007 8.40358 6.57721 0.411583
185 2 N 14.007 4.908 3.79948 6.5581
186 2 N 14.007 4.86107 6.76288 0.361553
187 2 N 14.007 8.2878 0.306605 6.70687
188 2 N 14.007 2.10893 0.347137 0.466028
189 2 N 14.007 4.92698 0.398383 6.42768
190 1 Ti 47.88 5.17069 5.2105 5.01403
191 1 Ti 47.88 6.68564 6.64701 5.10765
192 1 Ti 47.88 6.65941 5.0964 6.5857
193 1 Ti 47.88 5.09628 6.62304 6.61267
194 1 Ti 47.88 7.69872 4.68834 3.39012
195 1 Ti 47.88 8.14561 6.64828 6.60653
196 1 Ti 47.88 5.51031 8.81395 5.03965
197 1 Ti 47.88 6.57467 8.14953 6.63817
198 1 Ti 47.88 8.42868 8.14686 5.29746
199 1 Ti 47.88 3.0677 3.50455 0.73007
200 1 Ti 47.88 6.58253 6.69261 8.14394
201 1 Ti 47.88 8.46009 5.10235 7.68324
202 1 Ti 47.88 5.06962 7.89763 8.35928
203 1 Ti 47.88 8.7085 9.1139 7.90147
204 2 N 14.007 6.58716 3.71164 3.8475
205 2 N 14.007 3.84131 6.68652 3.9044
206 2 N 14.007 0.43647 6.49015 3.78578
207 2 N 14.007 6.54735 0.426136 3.91377
208 2 N 14.007 3.86534 3.84426 6.75883
209 2 N 14.007 6.63349 6.62867 6.62341
210 2 N 14.007 7.15539 3.51734 0.62614
211 2 N 14.007 3.80906 6.55127 0.3284
212 2 N 14.007 0.35977 3.85763 6.78312
213 2 N 14.007 0.460907 6.79368 0.323667
214 2 N 14.007 3.86073 0.451946 6.50106
215 2 N 14.007 6.61903 0.316427 0.383285
216 2 N 14.007 0.34794 0.439891 6.57191
ITEM: TIMESTEP
200
ITEM: NUMBER OF ATOMS
216
ITEM: BOX BOUNDS pp pp pp
-1.0083735457921961e-04 9.0001008373545872e+00
-1.0083735457921961e-04 9.0001008373545872e+00
-1.0083735457921961e-04 9.0001008373545872e+00
ITEM: ATOMS id type element mass x y z
1 1 Ti 47.88 0.692777 0.852261 0.29215
2 1 Ti 47.88 1.99582 2.07873 0.578178
3 1 Ti 47.88 2.15943 0.645013 2.13338
4 1 Ti 47.88 0.648938 2.07913 2.27515
5 1 Ti 47.88 3.67237 0.590691 0.622957
6 1 Ti 47.88 3.64779 2.18298 2.14203
7 1 Ti 47.88 8.91424 3.61527 0.892358
8 1 Ti 47.88 2.03502 3.6815 2.2862
9 1 Ti 47.88 4.11476 3.78985 0.517471
10 1 Ti 47.88 9.09228 0.745893 4.12112
11 1 Ti 47.88 2.08951 2.16401 3.6758
12 1 Ti 47.88 3.57652 1.05066 3.69629
13 1 Ti 47.88 0.142792 4.54403 4.63368
14 1 Ti 47.88 3.44613 5.12794 4.53694
15 2 N 14.007 2.06583 8.41787 8.37129
16 2 N 14.007 8.41784 1.83534 8.39131
17 2 N 14.007 5.0045 2.17233 8.43003
18 2 N 14.007 1.99097 4.85078 8.29143
19 2 N 14.007 8.31492 8.44039 2.09447
20 2 N 14.007 2.13413 2.12691 2.14971
21 2 N 14.007 1.847 8.53847 4.87356
22 2 N 14.007 8.22621 2.11644 4.96143
23 2 N 14.007 4.94398 8.48525 2.06857
24 2 N 14.007 5.02807 2.27283 4.94862
25 2 N 14.007 8.32189 4.74171 1.93855
26 2 N 14.007 2.23002 4.86042 4.96567
27 2 N 14.007 4.99897 4.89608 1.99265
28 1 Ti 47.88 5.04274 0.585112 0.914025
29 1 Ti 47.88 6.59212 2.07628 0.549745
30 1 Ti 47.88 6.59862 0.609912 2.07705
31 1 Ti 47.88 5.10461 2.12798 2.15922
32 1 Ti 47.88 1.07205 8.18786 0.498825
33 1 Ti 47.88 8.09863 2.05675 2.03058
34 1 Ti 47.88 5.75639 3.94747 0.350162
35 1 Ti 47.88 6.51003 3.63178 1.94558
36 1 Ti 47.88 8.16906 2.82624 0.460037
37 1 Ti 47.88 4.61287 9.03594 3.46486
38 1 Ti 47.88 6.60473 2.14599 3.6159
39 1 Ti 47.88 7.92332 0.722343 3.36294
40 1 Ti 47.88 5.40211 3.60134 3.755
41 1 Ti 47.88 8.54733 3.75994 5.00821
42 2 N 14.007 6.57586 8.46135 8.35854
43 2 N 14.007 3.95422 2.13653 8.26329
44 2 N 14.007 0.441787 2.18938 8.58693
45 2 N 14.007 6.66197 4.82344 8.17608
46 2 N 14.007 3.88372 8.26134 2.17405
47 2 N 14.007 6.61294 2.11104 2.10021
48 2 N 14.007 7.07494 8.32034 4.82739
49 2 N 14.007 3.94127 2.26803 4.8141
50 2 N 14.007 0.342599 8.2605 2.3441
51 2 N 14.007 0.27839 2.05636 4.92709
52 2 N 14.007 3.92312 4.91311 1.88951
53 2 N 14.007 6.76895 4.80846 4.79805
54 2 N 14.007 0.3963 4.87796 2.08818
55 1 Ti 47.88 0.804786 5.55043 0.194187
56 1 Ti 47.88 2.21368 6.52334 0.648575
57 1 Ti 47.88 2.19799 5.09447 2.11317
58 1 Ti 47.88 0.635426 6.59487 2.05963
59 1 Ti 47.88 4.71067 5.42688 8.25706
60 1 Ti 47.88 3.6375 6.62471 2.10211
61 1 Ti 47.88 8.85664 8.62627 1.01548
62 1 Ti 47.88 2.0661 8.16501 2.2046
63 1 Ti 47.88 3.65819 8.00762 0.846721
64 1 Ti 47.88 9.31926 5.06728 3.64204
65 1 Ti 47.88 2.16575 6.60354 3.56599
66 1 Ti 47.88 4.09552 5.38167 3.32121
67 1 Ti 47.88 0.895958 7.75085 4.08733
68 1 Ti 47.88 3.77161 8.13472 3.70514
69 2 N 14.007 2.19284 3.81155 8.4883
70 2 N 14.007 8.23038 6.5416 8.42179
71 2 N 14.007 4.95111 6.65358 8.20501
72 2 N 14.007 2.18367 0.488914 8.54152
73 2 N 14.007 8.40655 3.71856 2.25715
74 2 N 14.007 2.14863 6.60666 2.10709
75 2 N 14.007 1.79394 3.90825 4.8046
76 2 N 14.007 8.41142 6.61757 4.97707
77 2 N 14.007 4.84869 3.83713 1.98184
78 2 N 14.007 5.12606 6.70356 4.78541
79 2 N 14.007 8.42229 0.492842 2.08769
80 2 N 14.007 2.12284 0.555167 4.67971
81 2 N 14.007 4.89402 0.542614 2.29147
82 1 Ti 47.88 4.86996 5.27659 0.649249
83 1 Ti 47.88 6.61775 6.67237 0.702416
84 1 Ti 47.88 6.64475 5.04775 2.15804
85 1 Ti 47.88 5.15179 6.69309 2.10046
86 1 Ti 47.88 0.353033 4.52213 0.555676
87 1 Ti 47.88 8.1677 6.59148 2.09597
88 1 Ti 47.88 5.28741 9.15134 8.70905
89 1 Ti 47.88 6.59572 8.154 2.07866
90 1 Ti 47.88 7.78335 8.15095 0.351355
91 1 Ti 47.88 4.54358 4.11514 3.20076
92 1 Ti 47.88 6.56831 6.59332 3.66904
93 1 Ti 47.88 8.13245 5.66816 3.76912
94 1 Ti 47.88 5.55022 8.21396 3.70558
95 1 Ti 47.88 8.19917 8.04612 3.3362
96 2 N 14.007 7.06228 3.79751 8.28386
97 2 N 14.007 3.88339 6.653 8.20299
98 2 N 14.007 0.281583 6.60813 8.20748
99 2 N 14.007 6.4715 0.525244 8.39964
100 2 N 14.007 3.79771 3.84609 1.9431
101 2 N 14.007 6.64526 6.58379 2.12825
102 2 N 14.007 6.96304 3.74785 4.77097
103 2 N 14.007 4.08713 6.42481 4.98333
104 2 N 14.007 0.450523 3.849 2.42574
105 2 N 14.007 0.462072 6.46347 4.83802
106 2 N 14.007 3.84711 0.3449 2.18004
107 2 N 14.007 6.8003 0.333158 4.94346
108 2 N 14.007 0.458024 0.333915 2.33313
109 1 Ti 47.88 0.972158 0.726612 5.30583
110 1 Ti 47.88 2.13285 2.12023 5.10621
111 1 Ti 47.88 2.18541 0.626058 6.6618
112 1 Ti 47.88 0.564258 2.13635 6.81864
113 1 Ti 47.88 4.01605 7.80877 5.05748
114 1 Ti 47.88 3.61394 2.19043 6.48945
115 1 Ti 47.88 0.644952 3.20632 5.56314
116 1 Ti 47.88 2.13337 3.70823 6.72612
117 1 Ti 47.88 3.08787 3.55316 5.33212
118 1 Ti 47.88 0.879057 0.441986 7.95112
119 1 Ti 47.88 2.2824 2.17561 8.13454
120 1 Ti 47.88 3.56704 0.490317 8.08845
121 1 Ti 47.88 0.879405 3.75431 8.05841
122 1 Ti 47.88 3.76258 3.80163 8.26843
123 2 N 14.007 2.36806 8.42091 3.94743
124 2 N 14.007 8.25559 2.02822 3.88952
125 2 N 14.007 4.78772 2.20617 3.88161
126 2 N 14.007 2.04621 4.93884 3.89552
127 2 N 14.007 8.36361 8.16872 6.80955
128 2 N 14.007 2.10775 2.1415 6.63208
129 2 N 14.007 2.37199 8.29971 0.38396
130 2 N 14.007 8.42294 1.62733 0.448353
131 2 N 14.007 4.82867 8.3049 6.65707
132 2 N 14.007 4.87183 2.12945 0.485139
133 2 N 14.007 8.44951 5.0013 6.21851
134 2 N 14.007 2.12308 4.83672 0.361121
135 2 N 14.007 4.88056 4.92197 6.68632
136 1 Ti 47.88 4.78354 0.963605 4.91368
137 1 Ti 47.88 6.60443 2.01391 5.11856
138 1 Ti 47.88 6.62556 0.608509 6.67797
139 1 Ti 47.88 5.05209 2.10546 6.609
140 1 Ti 47.88 8.25057 0.663893 5.36885
141 1 Ti 47.88 8.12855 2.14031 6.71633
142 1 Ti 47.88 4.79475 3.58133 4.66743
143 1 Ti 47.88 6.60721 3.61481 6.49551
144 1 Ti 47.88 8.4623 3.27383 3.81646
145 1 Ti 47.88 4.85209 0.852392 7.75963
146 1 Ti 47.88 6.55085 2.08761 8.08849
147 1 Ti 47.88 7.70871 0.481906 8.46988
148 1 Ti 47.88 5.13287 3.54282 7.89081
149 1 Ti 47.88 7.74931 5.18497 0.334868
150 2 N 14.007 6.92259 8.42589 3.77827
151 2 N 14.007 3.77271 2.5531 3.77223
152 2 N 14.007 0.312589 2.06118 3.87375
153 2 N 14.007 6.33725 4.71498 3.82148
154 2 N 14.007 3.77558 8.46762 6.65123
155 2 N 14.007 6.62415 2.11684 6.64431
156 2 N 14.007 6.39788 8.16105 0.395335
157 2 N 14.007 3.79881 2.14141 0.313414
158 2 N 14.007 0.413651 8.31652 6.67397
159 2 N 14.007 0.371823 2.01453 0.66499
160 2 N 14.007 3.81648 4.8635 6.80602
161 2 N 14.007 6.34882 5.33091 0.0793716
162 2 N 14.007 0.480667 4.82522 6.48054
163 1 Ti 47.88 0.988846 5.20189 5.13135
164 1 Ti 47.88 2.1423 6.67722 5.11939
165 1 Ti 47.88 2.20663 5.16136 6.64264
166 1 Ti 47.88 0.646071 6.61099 6.59086
167 1 Ti 47.88 4.42794 4.19529 5.4657
168 1 Ti 47.88 3.61056 6.6121 6.57861
169 1 Ti 47.88 0.134641 8.64487 4.08107
170 1 Ti 47.88 1.99599 8.09062 6.68972
171 1 Ti 47.88 3.0955 8.61238 5.40634
172 1 Ti 47.88 8.66274 4.51017 8.64342
173 1 Ti 47.88 2.08168 6.68445 8.10358
174 1 Ti 47.88 3.41375 5.07778 8.38694
175 1 Ti 47.88 8.93599 7.87259 8.24912
176 1 Ti 47.88 3.57433 8.07101 8.19968
177 2 N 14.007 2.39309 3.91016 3.9075
178 2 N 14.007 8.48378 6.95446 3.95776
179 2 N 14.007 4.86694 6.78035 3.75588
180 2 N 14.007 1.99562 0.37604 3.65741
181 2 N 14.007 8.23824 3.998 6.55217
182 2 N 14.007 2.12565 6.64884 6.61076
183 2 N 14.007 1.67167 3.86457 0.413856
184 2 N 14.007 8.49544 6.53074 0.463651
185 2 N 14.007 5.0104 3.87869 6.54506
186 2 N 14.007 4.86143 6.8259 0.257276
187 2 N 14.007 8.24015 0.207475 6.66653
188 2 N 14.007 2.10016 0.309008 0.590619
189 2 N 14.007 4.97843 0.329759 6.41187
190 1 Ti 47.88 5.29199 5.26921 5.03215
191 1 Ti 47.88 6.71786 6.67501 5.15382
192 1 Ti 47.88 6.66687 5.10955 6.55137
193 1 Ti 47.88 5.13973 6.63325 6.57049
194 1 Ti 47.88 7.62722 4.76733 3.25982
195 1 Ti 47.88 8.09196 6.62011 6.62107
196 1 Ti 47.88 5.52568 8.65817 5.16384
197 1 Ti 47.88 6.6127 8.13078 6.65908
198 1 Ti 47.88 8.47443 8.08227 5.35181
199 1 Ti 47.88 2.8934 3.42349 0.847145
200 1 Ti 47.88 6.59724 6.65144 8.09981
201 1 Ti 47.88 8.41796 5.19536 7.62317
202 1 Ti 47.88 5.10239 7.94025 8.24713
203 1 Ti 47.88 8.67307 9.17892 7.87347
204 2 N 14.007 6.62079 3.69229 3.78474
205 2 N 14.007 3.81259 6.67104 3.96153
206 2 N 14.007 0.428306 6.52245 3.7763
207 2 N 14.007 6.55259 0.421091 3.91255
208 2 N 14.007 3.99663 3.80115 6.81682
209 2 N 14.007 6.64613 6.60929 6.62417
210 2 N 14.007 7.13975 3.59872 0.338223
211 2 N 14.007 3.82215 6.56466 0.26411
212 2 N 14.007 0.249548 3.83771 6.81923
213 2 N 14.007 0.496861 6.85482 0.233194
214 2 N 14.007 3.9217 0.512189 6.4576
215 2 N 14.007 6.60419 0.2472 0.427463
216 2 N 14.007 0.279287 0.379389 6.51638
ITEM: TIMESTEP
300
ITEM: NUMBER OF ATOMS
216
ITEM: BOX BOUNDS pp pp pp
-1.6422933852222599e-04 9.0001642293385444e+00
-1.6422933852222599e-04 9.0001642293385444e+00
-1.6422933852222599e-04 9.0001642293385444e+00
ITEM: ATOMS id type element mass x y z
1 1 Ti 47.88 0.800521 0.845009 0.323349
2 1 Ti 47.88 1.95044 2.09868 0.624136
3 1 Ti 47.88 2.16057 0.660159 2.11431
4 1 Ti 47.88 0.635645 2.08752 2.33658
5 1 Ti 47.88 3.6499 0.595836 0.645512
6 1 Ti 47.88 3.64673 2.21791 2.15025
7 1 Ti 47.88 8.91898 3.58845 0.968979
8 1 Ti 47.88 2.00025 3.68235 2.32677
9 1 Ti 47.88 4.10236 3.73816 0.524021
10 1 Ti 47.88 9.08426 0.773235 4.09764
11 1 Ti 47.88 2.05284 2.16579 3.70485
12 1 Ti 47.88 3.46736 1.09996 3.64056
13 1 Ti 47.88 0.151667 4.57204 4.64402
14 1 Ti 47.88 3.44654 5.16358 4.53638
15 2 N 14.007 2.04966 8.44865 8.3891
16 2 N 14.007 8.42283 1.79366 8.42758
17 2 N 14.007 4.94077 2.19871 8.43351
18 2 N 14.007 1.9717 4.78675 8.31642
19 2 N 14.007 8.28641 8.48136 2.08108
20 2 N 14.007 2.12177 2.13709 2.17976
21 2 N 14.007 1.85959 8.58079 4.89493
22 2 N 14.007 8.19764 2.13913 5.00194
23 2 N 14.007 4.95701 8.50396 2.05942
24 2 N 14.007 5.08421 2.2016 4.88146
25 2 N 14.007 8.33318 4.74559 1.94085
26 2 N 14.007 2.2424 4.84301 4.96465
27 2 N 14.007 4.98713 4.82456 1.98249
28 1 Ti 47.88 5.05455 0.639155 0.904766
29 1 Ti 47.88 6.56832 2.02834 0.547709
30 1 Ti 47.88 6.59562 0.59071 2.07724
31 1 Ti 47.88 5.12725 2.10157 2.21714
32 1 Ti 47.88 1.10175 8.13731 0.548554
33 1 Ti 47.88 8.0785 2.04705 2.00902
34 1 Ti 47.88 5.71235 3.89663 0.414945
35 1 Ti 47.88 6.51456 3.62802 1.91062
36 1 Ti 47.88 8.13301 2.765 0.528648
37 1 Ti 47.88 4.61864 9.04706 3.47456
38 1 Ti 47.88 6.60299 2.11935 3.59519
39 1 Ti 47.88 7.87069 0.732923 3.30129
40 1 Ti 47.88 5.40171 3.55573 3.66657
41 1 Ti 47.88 8.53419 3.74724 5.03814
42 2 N 14.007 6.56573 8.47833 8.33116
43 2 N 14.007 3.89102 2.13427 8.21916
44 2 N 14.007 0.423814 2.16426 8.63729
45 2 N 14.007 6.70797 4.79991 8.18637
46 2 N 14.007 3.90323 8.27774 2.15988
47 2 N 14.007 6.6109 2.09959 2.07805
48 2 N 14.007 7.0871 8.37003 4.87085
49 2 N 14.007 4.00456 2.25411 4.82494
50 2 N 14.007 0.300232 8.26006 2.3527
51 2 N 14.007 0.242216 2.03885 4.95347
52 2 N 14.007 3.92729 4.94949 1.85931
53 2 N 14.007 6.76286 4.80497 4.78821
54 2 N 14.007 0.39223 4.89009 2.1191
55 1 Ti 47.88 0.856493 5.58515 0.222627
56 1 Ti 47.88 2.28691 6.48462 0.65542
57 1 Ti 47.88 2.22734 5.08615 2.12798
58 1 Ti 47.88 0.656664 6.60448 2.03868
59 1 Ti 47.88 4.75552 5.40428 8.20411
60 1 Ti 47.88 3.66213 6.64152 2.055
61 1 Ti 47.88 8.8578 8.62561 1.00685
62 1 Ti 47.88 2.06016 8.15774 2.2221
63 1 Ti 47.88 3.72403 7.96045 0.821095
64 1 Ti 47.88 9.36014 5.09985 3.60095
65 1 Ti 47.88 2.19093 6.58964 3.56268
66 1 Ti 47.88 4.10829 5.40724 3.2939
67 1 Ti 47.88 0.995869 7.78548 4.07726
68 1 Ti 47.88 3.71013 8.05334 3.57813
69 2 N 14.007 2.18348 3.74917 8.5031
70 2 N 14.007 8.22478 6.53407 8.43031
71 2 N 14.007 4.94391 6.6748 8.19244
72 2 N 14.007 2.19345 0.493246 8.57766
73 2 N 14.007 8.38978 3.72598 2.27993
74 2 N 14.007 2.16702 6.60957 2.10835
75 2 N 14.007 1.77234 3.90959 4.76376
76 2 N 14.007 8.40561 6.5896 5.02207
77 2 N 14.007 4.77314 3.77736 2.00006
78 2 N 14.007 5.15925 6.689 4.78512
79 2 N 14.007 8.4345 0.524294 2.05605
80 2 N 14.007 2.14265 0.576218 4.67594
81 2 N 14.007 4.88573 0.557384 2.27442
82 1 Ti 47.88 4.92416 5.31636 0.646455
83 1 Ti 47.88 6.57707 6.68704 0.717506
84 1 Ti 47.88 6.59368 5.03863 2.11753
85 1 Ti 47.88 5.16177 6.67848 2.10444
86 1 Ti 47.88 0.386084 4.52262 0.604666
87 1 Ti 47.88 8.17089 6.56803 2.07137
88 1 Ti 47.88 5.27818 9.20107 8.70507
89 1 Ti 47.88 6.5647 8.14438 2.04788
90 1 Ti 47.88 7.81435 8.11602 0.304552
91 1 Ti 47.88 4.43624 4.1215 3.24027
92 1 Ti 47.88 6.55066 6.58907 3.68207
93 1 Ti 47.88 8.10128 5.7453 3.69844
94 1 Ti 47.88 5.58696 8.17554 3.72922
95 1 Ti 47.88 8.11397 7.98891 3.30605
96 2 N 14.007 7.08688 3.77066 8.24461
97 2 N 14.007 3.87382 6.62811 8.1595
98 2 N 14.007 0.273634 6.57903 8.20986
99 2 N 14.007 6.49563 0.545519 8.4139
100 2 N 14.007 3.73761 3.89755 1.91393
101 2 N 14.007 6.67202 6.57209 2.15593
102 2 N 14.007 6.95696 3.75027 4.7642
103 2 N 14.007 4.13082 6.41171 4.97572
104 2 N 14.007 0.436359 3.85785 2.46659
105 2 N 14.007 0.455896 6.49331 4.81536
106 2 N 14.007 3.84456 0.362956 2.18266
107 2 N 14.007 6.74596 0.361287 4.98724
108 2 N 14.007 0.457136 0.326967 2.32932
109 1 Ti 47.88 1.02516 0.777703 5.33419
110 1 Ti 47.88 2.14362 2.15284 5.08694
111 1 Ti 47.88 2.21234 0.627626 6.66335
112 1 Ti 47.88 0.534873 2.09761 6.90667
113 1 Ti 47.88 4.06108 7.79259 5.06278
114 1 Ti 47.88 3.59851 2.20578 6.46349
115 1 Ti 47.88 0.731582 3.1429 5.61678
116 1 Ti 47.88 2.12314 3.73243 6.76296
117 1 Ti 47.88 3.02232 3.48253 5.34709
118 1 Ti 47.88 0.905843 0.51059 7.86909
119 1 Ti 47.88 2.30537 2.16418 8.1528
120 1 Ti 47.88 3.54186 0.533369 8.04686
121 1 Ti 47.88 0.86629 3.67757 8.07739
122 1 Ti 47.88 3.73237 3.71983 8.27964
123 2 N 14.007 2.42708 8.51281 3.97711
124 2 N 14.007 8.21891 2.02771 3.93548
125 2 N 14.007 4.77536 2.19883 3.83833
126 2 N 14.007 2.05689 4.9591 3.90561
127 2 N 14.007 8.38738 8.12196 6.83859
128 2 N 14.007 2.08416 2.1351 6.65319
129 2 N 14.007 2.38838 8.2766 0.39204
130 2 N 14.007 8.48426 1.5484 0.468296
131 2 N 14.007 4.79113 8.29107 6.70326
132 2 N 14.007 4.81286 2.1189 0.495424
133 2 N 14.007 8.44794 5.00671 6.21243
134 2 N 14.007 2.12985 4.809 0.380978
135 2 N 14.007 4.88855 4.9094 6.72419
136 1 Ti 47.88 4.76754 0.913159 4.91536
137 1 Ti 47.88 6.59428 2.01876 5.12747
138 1 Ti 47.88 6.59374 0.619982 6.71741
139 1 Ti 47.88 5.04173 2.12206 6.56499
140 1 Ti 47.88 8.18852 0.712271 5.3798
141 1 Ti 47.88 8.11576 2.19667 6.75716
142 1 Ti 47.88 4.89385 3.52246 4.75949
143 1 Ti 47.88 6.63996 3.60711 6.44746
144 1 Ti 47.88 8.39735 3.27644 3.78883
145 1 Ti 47.88 4.86161 0.871788 7.71374
146 1 Ti 47.88 6.53337 2.15016 8.07178
147 1 Ti 47.88 7.70843 0.526789 8.51557
148 1 Ti 47.88 5.23292 3.60576 7.84804
149 1 Ti 47.88 7.73887 5.21327 0.377962
150 2 N 14.007 6.93956 8.44383 3.83614
151 2 N 14.007 3.76752 2.63385 3.82125
152 2 N 14.007 0.273494 2.08283 3.90167
153 2 N 14.007 6.31634 4.70949 3.81797
154 2 N 14.007 3.74885 8.48711 6.63809
155 2 N 14.007 6.59977 2.12131 6.63227
156 2 N 14.007 6.38797 8.16058 0.357688
157 2 N 14.007 3.76067 2.16153 0.27125
158 2 N 14.007 0.4254 8.25553 6.71239
159 2 N 14.007 0.397509 2.01917 0.713653
160 2 N 14.007 3.82384 4.87879 6.85708