ITEM: TIMESTEP
100
ITEM: NUMBER OF ATOMS
64
ITEM: BOX BOUNDS pp pp pp
-8.1736764911966020e-08 9.0760000817367263e+00
-8.1736764911966020e-08 9.0760000817367263e+00
-8.1736764911966020e-08 9.0760000817367263e+00
ITEM: ATOMS id type element mass x y z
1 1 Zr 178.49 -0.202284 -0.103681 0.184986
2 1 Zr 178.49 2.24394 2.23989 0.15757
3 1 Zr 178.49 2.38715 0.00760707 2.31906
4 1 Zr 178.49 0.189743 2.13491 2.43033
5 2 N 14.007 2.16022 -0.0366044 0.0518284
6 2 N 14.007 0.0643535 2.20892 -0.0112203
7 2 N 14.007 0.249688 0.0200173 2.3717
8 2 N 14.007 2.41025 2.28562 2.42573
33 1 Zr 178.49 0.0717637 0.00614489 4.43454
34 1 Zr 178.49 2.09093 2.09303 4.56073
35 1 Zr 178.49 2.20127 0.184946 6.98687
36 1 Zr 178.49 -0.0852535 2.34863 6.70993
37 2 N 14.007 2.20261 -0.13402 4.60685
38 2 N 14.007 0.0748712 2.32312 4.52064
39 2 N 14.007 -0.0953263 -0.0582398 6.88319
40 2 N 14.007 2.32321 2.19515 6.99206
17 1 Zr 178.49 0.0224698 4.59023 -0.0502132
18 1 Zr 178.49 2.34433 6.68588 0.113391
19 1 Zr 178.49 2.18589 4.55908 2.42079
20 1 Zr 178.49 -0.0806332 6.89203 2.29169
21 2 N 14.007 2.25897 4.66592 0.0590168
22 2 N 14.007 0.0240789 6.78953 0.00562849
23 2 N 14.007 -0.02048 4.54224 2.21973
24 2 N 14.007 2.28672 6.73335 2.34795
49 1 Zr 178.49 0.188401 4.44568 4.53787
50 1 Zr 178.49 2.28458 6.60429 4.40696
51 1 Zr 178.49 2.15438 4.4599 6.83397
52 1 Zr 178.49 0.0478611 6.76916 6.8295
53 2 N 14.007 2.38303 4.46343 4.64819
54 2 N 14.007 0.0329953 6.71584 4.53498
55 2 N 14.007 0.0104869 4.46482 6.83825
56 2 N 14.007 2.22718 6.75711 6.8208
9 1 Zr 178.49 4.35828 0.133762 -0.0613568
10 1 Zr 178.49 6.787 2.1408 -0.0657578
11 1 Zr 178.49 6.99915 0.127192 2.22212
12 1 Zr 178.49 4.67739 2.32488 2.24946
13 2 N 14.007 6.57238 0.116031 -0.108371
14 2 N 14.007 4.45326 2.32122 -0.0663796
15 2 N 14.007 4.61084 0.0632593 2.23666
16 2 N 14.007 6.86862 2.3015 2.19766
41 1 Zr 178.49 4.43748 0.0883019 4.49721
42 1 Zr 178.49 6.95692 2.23448 4.48067
43 1 Zr 178.49 6.77303 0.0444921 6.75301
44 1 Zr 178.49 4.3653 2.13312 6.69737
45 2 N 14.007 6.83741 -0.0246668 4.43978
46 2 N 14.007 4.60849 2.28009 4.49395
47 2 N 14.007 4.59144 -0.0509889 6.78606
48 2 N 14.007 6.84295 2.39407 6.77523
25 1 Zr 178.49 4.36509 4.52294 -0.114629
26 1 Zr 178.49 6.64462 6.8738 -0.120438
27 1 Zr 178.49 6.87769 4.67417 2.38416
28 1 Zr 178.49 4.4659 7.00112 2.35208
29 2 N 14.007 6.747 4.55374 0.0174092
30 2 N 14.007 4.5929 6.75155 -0.0400524
31 2 N 14.007 4.51965 4.59541 2.2037
32 2 N 14.007 6.84843 6.90269 2.36771
57 1 Zr 178.49 4.58851 4.52913 4.40353
58 1 Zr 178.49 6.96093 6.77571 4.69267
59 1 Zr 178.49 6.8993 4.70959 6.69647
60 1 Zr 178.49 4.62192 6.74432 6.62774
61 2 N 14.007 6.84967 4.41953 4.4898
62 2 N 14.007 4.66076 6.96787 4.49892
63 2 N 14.007 4.52056 4.5543 6.64018
64 2 N 14.007 6.80962 6.80433 6.89942
ITEM: TIMESTEP
200
ITEM: NUMBER OF ATOMS
64
ITEM: BOX BOUNDS pp pp pp
-6.5094626933159816e-07 9.0760006509462201e+00
-6.5094626933159816e-07 9.0760006509462201e+00
-6.5094626933159816e-07 9.0760006509462201e+00
ITEM: ATOMS id type element mass x y z
1 1 Zr 178.49 -0.34859 -0.308895 0.217061
2 1 Zr 178.49 2.23731 2.07113 0.318312
3 1 Zr 178.49 2.59894 0.00463682 2.38193
4 1 Zr 178.49 0.358111 2.11728 2.48644
5 2 N 14.007 2.03566 -0.20061 -0.0112856
6 2 N 14.007 -0.00980371 2.23278 0.0698295
7 2 N 14.007 0.22373 -0.0117738 2.44903
8 2 N 14.007 2.65875 2.38905 2.35062
33 1 Zr 178.49 0.0228995 -0.0284695 4.55458
34 1 Zr 178.49 2.06625 1.89068 4.56079
35 1 Zr 178.49 2.22959 0.182465 7.06576
36 1 Zr 178.49 -0.166349 2.29384 6.72144
37 2 N 14.007 2.17117 -0.240441 4.57645
38 2 N 14.007 -0.0573804 2.34389 4.61591
39 2 N 14.007 -0.0325279 0.0536471 6.91734
40 2 N 14.007 2.07789 2.35821 6.84824
17 1 Zr 178.49 -0.0390098 4.60167 -0.123493
18 1 Zr 178.49 2.39244 6.53633 0.1825
19 1 Zr 178.49 2.1302 4.58423 2.55931
20 1 Zr 178.49 -0.130485 6.8456 2.32642
21 2 N 14.007 2.14202 4.42357 0.0816168
22 2 N 14.007 -0.0444665 6.78916 0.096065
23 2 N 14.007 -0.103557 4.52712 2.17247
24 2 N 14.007 2.05609 6.74249 2.23446
49 1 Zr 178.49 0.313428 4.41087 4.47087
50 1 Zr 178.49 2.35584 6.4937 4.47678
51 1 Zr 178.49 2.17582 4.46151 6.89181
52 1 Zr 178.49 0.135465 6.79366 6.85079
53 2 N 14.007 2.41562 4.35111 4.6337
54 2 N 14.007 0.0757439 6.83458 4.61627
55 2 N 14.007 -0.0517819 4.64453 6.80027
56 2 N 14.007 2.36613 6.79513 6.79653
9 1 Zr 178.49 4.1392 0.254982 -0.116089
10 1 Zr 178.49 6.80058 2.16735 -0.0627177
11 1 Zr 178.49 7.06258 0.323965 2.21742
12 1 Zr 178.49 4.8134 2.43487 2.26434
13 2 N 14.007 6.42333 0.243177 -0.219158
14 2 N 14.007 4.44666 2.49907 -0.154721
15 2 N 14.007 4.69437 0.187245 2.15582
16 2 N 14.007 6.93062 2.3546 2.21621
41 1 Zr 178.49 4.3794 0.186912 4.43561
42 1 Zr 178.49 6.98892 2.1093 4.41322
43 1 Zr 178.49 6.78515 0.214022 6.61444
44 1 Zr 178.49 4.32168 2.07913 6.6091
45 2 N 14.007 6.80876 -0.0789559 4.54692
46 2 N 14.007 4.59821 2.35937 4.48377
47 2 N 14.007 4.57237 -0.14775 6.58861
48 2 N 14.007 6.70386 2.47782 6.70042
25 1 Zr 178.49 4.22768 4.65922 -0.213503
26 1 Zr 178.49 6.56516 6.83836 -0.0745342
27 1 Zr 178.49 6.88033 4.77183 2.3467
28 1 Zr 178.49 4.39405 7.12562 2.33198
29 2 N 14.007 6.71433 4.61169 -0.16868
30 2 N 14.007 4.55072 6.97403 -0.0750889
31 2 N 14.007 4.56726 4.79803 2.0786
32 2 N 14.007 6.65091 6.92712 2.11154
57 1 Zr 178.49 4.61127 4.56913 4.32088
58 1 Zr 178.49 7.01847 6.70245 4.74536
59 1 Zr 178.49 6.86743 4.83975 6.57542
60 1 Zr 178.49 4.65081 6.67569 6.56481
61 2 N 14.007 6.89697 4.34144 4.39886
62 2 N 14.007 4.6513 6.84718 4.38909
63 2 N 14.007 4.41309 4.53851 6.71869
64 2 N 14.007 6.96856 6.94764 6.81018
ITEM: TIMESTEP
300
ITEM: NUMBER OF ATOMS
64
ITEM: BOX BOUNDS pp pp pp
-2.5128981446798093e-06 9.0760025128980999e+00
-2.5128981446798093e-06 9.0760025128980999e+00
-2.5128981446798093e-06 9.0760025128980999e+00
ITEM: ATOMS id type element mass x y z
1 1 Zr 178.49 -0.36563 -0.435017 0.327087
2 1 Zr 178.49 2.07327 1.86393 0.306273
3 1 Zr 178.49 2.40168 -0.048977 2.31904
4 1 Zr 178.49 0.543301 2.31898 2.44986
5 2 N 14.007 2.18344 -0.362462 0.0810752
6 2 N 14.007 -0.0261071 1.97233 0.0163961
7 2 N 14.007 0.135859 -0.11986 2.58087
8 2 N 14.007 2.60907 2.44387 2.31856
33 1 Zr 178.49 -0.0234222 -0.107285 4.90323
34 1 Zr 178.49 2.26413 1.7584 4.44476
35 1 Zr 178.49 2.45827 0.0938053 6.91253
36 1 Zr 178.49 -0.248011 2.18708 6.97802
37 2 N 14.007 2.4205 -0.236506 4.50732
38 2 N 14.007 0.0518361 2.20181 4.65445
39 2 N 14.007 0.141563 0.0205253 6.86792
40 2 N 14.007 2.13414 2.32847 6.76831
17 1 Zr 178.49 -0.163777 4.48963 -0.175446
18 1 Zr 178.49 2.15864 6.49542 0.244119
19 1 Zr 178.49 2.26935 4.64385 2.49932
20 1 Zr 178.49 -0.15042 6.7877 2.35687
21 2 N 14.007 1.93096 4.25872 0.0233793
22 2 N 14.007 -0.110917 6.81239 0.128335
23 2 N 14.007 -0.112088 4.65701 2.14828
24 2 N 14.007 2.09023 6.75846 2.33648
49 1 Zr 178.49 0.206825 4.43481 4.40082
50 1 Zr 178.49 2.48886 6.57851 4.67618
51 1 Zr 178.49 2.34645 4.55756 6.87835
52 1 Zr 178.49 0.205406 6.90765 6.86639
53 2 N 14.007 2.33585 4.33542 4.47968
54 2 N 14.007 0.22224 6.78343 4.75525
55 2 N 14.007 -0.0457332 4.45471 6.61353
56 2 N 14.007 2.53992 6.80896 6.87575
9 1 Zr 178.49 4.35022 0.151004 -0.0882233
10 1 Zr 178.49 6.83927 2.4367 -0.010911
11 1 Zr 178.49 6.89107 0.371331 2.0553
12 1 Zr 178.49 4.83059 2.65374 2.37114
13 2 N 14.007 6.62906 0.179098 -0.172576
14 2 N 14.007 4.60738 2.51879 0.110988
15 2 N 14.007 4.74078 0.307603 2.22574
16 2 N 14.007 6.96729 2.45888 2.17075
41 1 Zr 178.49 4.45767 0.341367 4.4379
42 1 Zr 178.49 6.81276 1.9446 4.35051
43 1 Zr 178.49 6.8096 0.37842 6.52298
44 1 Zr 178.49 4.35471 2.04527 6.65742
45 2 N 14.007 6.87019 -0.0548909 4.43726
46 2 N 14.007 4.7149 2.35328 4.66473
47 2 N 14.007 4.58009 -0.139942 6.7814
48 2 N 14.007 6.79476 2.50727 6.70865
25 1 Zr 178.49 4.36356 4.77398 -0.314605
26 1 Zr 178.49 6.63231 6.77028 -0.0255512
27 1 Zr 178.49 6.87132 4.75823 2.12605
28 1 Zr 178.49 4.3899 7.09187 2.13588
29 2 N 14.007 6.79042 4.67587 -0.0675204
30 2 N 14.007 4.6058 7.06699 -0.0905231
31 2 N 14.007 4.58703 4.9694 2.0488
32 2 N 14.007 6.55906 7.01113 2.299
57 1 Zr 178.49 4.54322 4.52979 4.35161
58 1 Zr 178.49 6.91396 6.74484 4.39297
59 1 Zr 178.49 6.54872 4.71734 6.6146
60 1 Zr 178.49 4.65209 6.67894 6.69987
61 2 N 14.007 6.96802 4.53356 4.4035
62 2 N 14.007 4.77502 6.89249 4.51172
63 2 N 14.007 4.40225 4.35272 6.80973
64 2 N 14.007 7.18141 7.07645 6.72673
ITEM: TIMESTEP
400
ITEM: NUMBER OF ATOMS
64
ITEM: BOX BOUNDS pp pp pp
-5.9819488136270138e-06 9.0760059819487715e+00
-5.9819488136270138e-06 9.0760059819487715e+00
-5.9819488136270138e-06 9.0760059819487715e+00
ITEM: ATOMS id type element mass x y z
1 1 Zr 178.49 -0.166731 -0.358277 0.350852
2 1 Zr 178.49 2.3301 1.73763 0.186049
3 1 Zr 178.49 2.38865 0.0594911 2.25036
4 1 Zr 178.49 0.44549 2.5632 2.57107
5 2 N 14.007 2.36828 -0.2283 0.0151141
6 2 N 14.007 -0.0499859 2.07074 0.184666
7 2 N 14.007 0.173293 0.0305814 2.52255
8 2 N 14.007 2.50638 2.52678 2.32505
33 1 Zr 178.49 -0.0025073 -0.232888 4.91668
34 1 Zr 178.49 2.25305 1.85631 4.43683
35 1 Zr 178.49 2.43143 0.0262527 7.00744
36 1 Zr 178.49 -0.202351 2.30167 7.13412
37 2 N 14.007 2.30345 -0.0991243 4.71701
38 2 N 14.007 -0.141563 2.01304 4.71931
39 2 N 14.007 0.223325 0.180239 7.18699
40 2 N 14.007 2.08101 2.38654 7.0372
17 1 Zr 178.49 -0.133238 4.26878 -0.0783458
18 1 Zr 178.49 2.23964 6.47361 0.174607
19 1 Zr 178.49 2.2947 4.59354 2.28805
20 1 Zr 178.49 -0.176834 6.7401 2.3115
21 2 N 14.007 2.19774 4.31914 0.0265735
22 2 N 14.007 -0.0259416 6.60656 0.0527781
23 2 N 14.007 -0.0153203 4.56534 2.12458
24 2 N 14.007 2.15215 6.95577 2.20145
49 1 Zr 178.49 -0.0623855 4.50837 4.2598
50 1 Zr 178.49 2.59586 6.576 4.76005
51 1 Zr 178.49 2.27429 4.47125 6.87764
52 1 Zr 178.49 0.251453 6.92082 6.84143
53 2 N 14.007 2.26546 4.45213 4.56155
54 2 N 14.007 0.289371 6.80601 4.67076
55 2 N 14.007 -0.027084 4.6094 6.67799
56 2 N 14.007 2.38985 6.83542 6.8587
9 1 Zr 178.49 4.47732 0.0563841 -0.0589934
10 1 Zr 178.49 6.85906 2.51843 0.122639
11 1 Zr 178.49 6.86824 0.447432 2.05894
12 1 Zr 178.49 4.77435 2.75864 2.3705
13 2 N 14.007 6.64588 0.0348027 -0.212159
14 2 N 14.007 4.56828 2.39396 -0.0710212
15 2 N 14.007 4.72585 0.416832 2.286
16 2 N 14.007 6.89098 2.60408 2.21792
41 1 Zr 178.49 4.5969 0.178738 4.44928
42 1 Zr 178.49 6.65603 2.11231 4.18353
43 1 Zr 178.49 6.93935 0.180693 6.64615
44 1 Zr 178.49 4.32816 2.00993 6.78239
45 2 N 14.007 6.73926 0.00311764 4.45811
46 2 N 14.007 4.39502 2.46129 4.69777
47 2 N 14.007 4.62517 -0.25941 6.62136
48 2 N 14.007 6.58817 2.51917 6.74448
25 1 Zr 178.49 4.1493 4.73499 -0.243453
26 1 Zr 178.49 6.82894 6.774 -0.179583
27 1 Zr 178.49 6.91592 4.58075 2.06132
28 1 Zr 178.49 4.25809 7.24214 2.06056
29 2 N 14.007 6.72643 4.63164 -0.128714
30 2 N 14.007 4.6753 7.02119 -0.102567
31 2 N 14.007 4.4635 4.97766 2.07771
32 2 N 14.007 6.69148 7.07505 1.97756
57 1 Zr 178.49 4.43283 4.66268 4.39319
58 1 Zr 178.49 6.89929 6.77295 4.13018
59 1 Zr 178.49 6.52889 4.7037 6.58125
60 1 Zr 178.49 4.68571 6.6974 6.79157
61 2 N 14.007 6.96406 4.50885 4.39592
62 2 N 14.007 4.75325 6.99756 4.27146
63 2 N 14.007 4.35932 4.39331 6.88615
64 2 N 14.007 7.1271 6.95645 6.53534
ITEM: TIMESTEP
500
ITEM: NUMBER OF ATOMS
64
ITEM: BOX BOUNDS pp pp pp
-1.1322135479829853e-05 9.0760113221354217e+00
-1.1322135479829853e-05 9.0760113221354217e+00
-1.1322135479829853e-05 9.0760113221354217e+00
ITEM: ATOMS id type element mass x y z
1 1 Zr 178.49 0.0535604 -0.253303 0.298544
2 1 Zr 178.49 2.49984 1.90735 0.220016
3 1 Zr 178.49 2.42779 0.2729 2.34129
4 1 Zr 178.49 0.1294 2.51237 2.62985
5 2 N 14.007 2.25367 -0.223039 0.0467687
6 2 N 14.007 0.100983 1.93744 0.193311
7 2 N 14.007 0.0704902 0.102937 2.44657
8 2 N 14.007 2.2127 2.49687 2.26772
33 1 Zr 178.49 -0.0854602 -0.347226 4.62484
34 1 Zr 178.49 2.2093 1.98063 4.40435
35 1 Zr 178.49 2.37715 0.0835952 7.1076
36 1 Zr 178.49 -0.175535 2.31807 6.96554
37 2 N 14.007 2.24726 -0.17358 4.9255
38 2 N 14.007 -0.139506 2.01732 4.78438
39 2 N 14.007 0.157564 -0.0246708 6.95301
40 2 N 14.007 2.05464 2.18324 6.79098
17 1 Zr 178.49 -0.145108 4.22806 -0.0232581
18 1 Zr 178.49 2.22816 6.53322 0.0977803
19 1 Zr 178.49 2.36095 4.50929 2.06481
20 1 Zr 178.49 -0.0814635 6.80495 2.23225
21 2 N 14.007 2.0567 4.30652 0.0093833
22 2 N 14.007 0.0695431 6.56994 -0.0852781
23 2 N 14.007 -0.0263801 4.56052 2.08967
24 2 N 14.007 2.14934 6.94254 2.33586
49 1 Zr 178.49 -0.483766 4.52854 4.40779
50 1 Zr 178.49 2.5183 6.52786 4.73683
51 1 Zr 178.49 1.89992 4.36329 6.8443
52 1 Zr 178.49 0.230731 6.78284 6.69239
53 2 N 14.007 2.0763 4.20041 4.72485
54 2 N 14.007 0.2696 6.6423 4.49932
55 2 N 14.007 -0.266325 4.48968 6.75361
56 2 N 14.007 2.41501 6.69807 6.97287
9 1 Zr 178.49 4.58049 0.0612302 0.0419352
10 1 Zr 178.49 6.78332 2.22505 0.170174
11 1 Zr 178.49 7.22811 0.518211 2.24456
12 1 Zr 178.49 4.68382 2.88725 2.29794
13 2 N 14.007 6.81513 0.00744338 -0.185091
14 2 N 14.007 4.6183 2.47006 -0.155992
15 2 N 14.007 4.88 0.427776 2.36671
16 2 N 14.007 6.74516 2.6468 2.17214
41 1 Zr 178.49 4.64207 -0.0021636 4.48914
42 1 Zr 178.49 6.64189 2.17896 4.34504
43 1 Zr 178.49 7.228 0.116147 6.71162
44 1 Zr 178.49 4.20228 2.08481 6.84255
45 2 N 14.007 6.78942 -0.12306 4.53413
46 2 N 14.007 4.46414 2.23306 4.68259
47 2 N 14.007 4.60123 -0.217676 6.69551
48 2 N 14.007 6.60976 2.30995 6.64685
25 1 Zr 178.49 4.24156 4.53014 -0.101767
26 1 Zr 178.49 6.95079 6.93168 -0.292873
27 1 Zr 178.49 6.7988 4.7766 2.01306
28 1 Zr 178.49 4.38714 7.32841 2.11673
29 2 N 14.007 6.76256 4.61942 -0.0661898
30 2 N 14.007 4.62574 6.97627 -0.232469
31 2 N 14.007 4.36602 5.05805 2.01606
32 2 N 14.007 6.67835 6.97093 2.17409
57 1 Zr 178.49 4.39226 4.61331 4.31624
58 1 Zr 178.49 7.13937 6.74409 4.19198
59 1 Zr 178.49 6.69433 4.74188 6.50825
60 1 Zr 178.49 4.77393 6.60341 6.7375
61 2 N 14.007 6.64016 4.5024 4.39346
62 2 N 14.007 4.72923 6.91432 4.37861
63 2 N 14.007 4.26219 4.34601 6.74226
64 2 N 14.007 7.12215 6.88123 6.70434
ITEM: TIMESTEP
600
ITEM: NUMBER OF ATOMS
64
ITEM: BOX BOUNDS pp pp pp
-1.8664655941691422e-05 9.0760186646558516e+00
-1.8664655941691422e-05 9.0760186646558516e+00
-1.8664655941691422e-05 9.0760186646558516e+00
ITEM: ATOMS id type element mass x y z
1 1 Zr 178.49 0.193792 -0.174942 0.25949
2 1 Zr 178.49 2.59421 1.91368 0.299646
3 1 Zr 178.49 2.60905 0.143443 2.40049
4 1 Zr 178.49 0.116607 2.44301 2.50518
5 2 N 14.007 2.46232 -0.127058 0.0386963
6 2 N 14.007 0.0157847 2.05799 0.213005
7 2 N 14.007 0.337207 0.107021 2.42554
8 2 N 14.007 2.2743 2.40389 2.24227
33 1 Zr 178.49 -0.0585125 -0.361078 4.50017
34 1 Zr 178.49 2.17501 1.98983 4.37954
35 1 Zr 178.49 2.59458 0.0433977 6.89861
36 1 Zr 178.49 -0.159746 2.20926 7.03857
37 2 N 14.007 2.42601 -0.2934 4.62781
38 2 N 14.007 -0.0643624 1.93629 4.7301
39 2 N 14.007 0.26197 -0.193969 6.87197
40 2 N 14.007 2.10892 2.17621 6.79859
17 1 Zr 178.49 -0.337802 4.13582 -0.163391
18 1 Zr 178.49 2.43798 6.51714 0.105272
19 1 Zr 178.49 2.38339 4.66694 2.14158
20 1 Zr 178.49 0.100047 7.06164 2.2306
21 2 N 14.007 2.17723 4.33715 -0.105573
22 2 N 14.007 0.106476 6.65407 -0.222778
23 2 N 14.007 0.0164159 4.63793 1.99481
24 2 N 14.007 2.16166 6.75411 2.2736
49 1 Zr 178.49 -0.578384 4.16361 4.52443
50 1 Zr 178.49 2.30472 6.42068 4.60047
51 1 Zr 178.49 1.78878 4.47155 6.79603
52 1 Zr 178.49 0.258476 6.62782 6.54318
53 2 N 14.007 1.94776 4.15977 4.59768
54 2 N 14.007 0.151659 6.51518 4.43467
55 2 N 14.007 -0.255129 4.51869 6.71663
56 2 N 14.007 2.68853 6.93418 6.86459
9 1 Zr 178.49 4.64757 0.17171 0.0170486
10 1 Zr 178.49 6.80799 2.00484 -0.0586463
11 1 Zr 178.49 7.25827 0.466787 2.40758
12 1 Zr 178.49 4.56631 2.71757 2.32558
13 2 N 14.007 7.04207 0.109262 0.0058929
14 2 N 14.007 4.55315 2.55547 -0.103188
15 2 N 14.007 4.75316 0.417126 2.44268
16 2 N 14.007 6.7618 2.56387 2.0878
41 1 Zr 178.49 4.56458 0.068421 4.50333
42 1 Zr 178.49 6.5671 2.18697 4.49473
43 1 Zr 178.49 7.06193 0.198292 6.65216
44 1 Zr 178.49 4.27858 2.15281 6.85335
45 2 N 14.007 6.83877 0.00155095 4.44759
46 2 N 14.007 4.40132 2.15338 4.56704
47 2 N 14.007 4.95354 -0.0559019 6.90704
48 2 N 14.007 6.64385 2.36852 6.76323
25 1 Zr 178.49 4.49122 4.72012 0.0600953
26 1 Zr 178.49 6.86713 7.04642 -0.130421
27 1 Zr 178.49 6.68292 5.1059 2.18756
28 1 Zr 178.49 4.47472 7.35926 2.08299
29 2 N 14.007 6.72026 4.85097 -0.109819
30 2 N 14.007 4.54352 6.92967 -0.0555717
31 2 N 14.007 4.47795 5.05767 2.16647
32 2 N 14.007 6.81491 7.26968 2.05997
57 1 Zr 178.49 4.27264 4.5592 4.29529
58 1 Zr 178.49 7.14708 6.72963 4.21056
59 1 Zr 178.49 6.60075 4.4979 6.51324
60 1 Zr 178.49 4.76079 6.64219 6.84601
61 2 N 14.007 6.57187 4.47757 4.4165
62 2 N 14.007 4.67856 6.81382 4.50077
63 2 N 14.007 4.28889 4.36328 6.6598
64 2 N 14.007 7.04383 7.07008 6.55643
ITEM: TIMESTEP
700
ITEM: NUMBER OF ATOMS
64
ITEM: BOX BOUNDS pp pp pp
-2.8061703605253285e-05 9.0760280617035143e+00
-2.8061703605253285e-05 9.0760280617035143e+00
-2.8061703605253285e-05 9.0760280617035143e+00
ITEM: ATOMS id type element mass x y z
1 1 Zr 178.49 0.297045 -0.191415 0.142986
2 1 Zr 178.49 2.53913 1.91254 0.24392
3 1 Zr 178.49 2.69446 0.127079 2.35399
4 1 Zr 178.49 0.135265 2.32143 2.45393
5 2 N 14.007 2.3721 -0.271225 -0.18424
6 2 N 14.007 0.107479 2.20832 0.202685
7 2 N 14.007 0.388067 0.0763721 2.31479
8 2 N 14.007 2.39302 2.51425 2.27127
33 1 Zr 178.49 -0.107203 -0.253919 4.57678
34 1 Zr 178.49 2.17009 1.85384 4.39125
35 1 Zr 178.49 2.64598 0.0207031 6.52279
36 1 Zr 178.49 -0.128759 2.10595 7.12678
37 2 N 14.007 2.3497 -0.37628 4.61387
38 2 N 14.007 -0.0473428 1.84075 4.83077
39 2 N 14.007 0.354037 -0.221898 6.75736
40 2 N 14.007 2.1468 2.19715 7.05003
17 1 Zr 178.49 -0.134188 4.30139 -0.228394
18 1 Zr 178.49 2.48158 6.74099 0.0420401
19 1 Zr 178.49 2.10627 4.69054 2.26877
20 1 Zr 178.49 0.0825171 6.8462 2.03118
21 2 N 14.007 2.1615 4.42684 0.0537069
22 2 N 14.007 0.00114336 6.60106 -0.269431
23 2 N 14.007 -0.0978148 4.6928 2.05856
24 2 N 14.007 2.14581 6.82616 2.33056
49 1 Zr 178.49 -0.493766 4.20657 4.34665
50 1 Zr 178.49 2.27089 6.52474 4.61029
51 1 Zr 178.49 2.10696 4.55256 6.88701
52 1 Zr 178.49 0.263477 6.63381 6.4729
53 2 N 14.007 2.09109 4.24332 4.71603
54 2 N 14.007 0.123672 6.56524 4.34281
55 2 N 14.007 -0.206808 4.50058 6.66114
56 2 N 14.007 2.47701 6.70873 6.98283
9 1 Zr 178.49 4.70957 0.196312 -0.0893738
10 1 Zr 178.49 6.68054 2.09785 -0.15714
11 1 Zr 178.49 7.14284 0.474425 2.45713
12 1 Zr 178.49 4.4718 2.40071 2.38817
13 2 N 14.007 7.13617 0.0514813 0.0327073
14 2 N 14.007 4.64431 2.45263 0.0165887
15 2 N 14.007 4.93877 0.454778 2.32215
16 2 N 14.007 6.75921 2.77784 2.1589
41 1 Zr 178.49 4.55476 0.104971 4.58228
42 1 Zr 178.49 6.49574 2.31277 4.35048
43 1 Zr 178.49 7.07011 0.237767 6.48564
44 1 Zr 178.49 4.42098 2.09348 6.89697
45 2 N 14.007 6.80873 0.132747 4.5139
46 2 N 14.007 4.31551 2.45042 4.67481
47 2 N 14.007 5.01054 0.0524123 6.87431
48 2 N 14.007 6.71638 2.34449 6.80884
25 1 Zr 178.49 4.73079 4.74437 0.0323733
26 1 Zr 178.49 6.88038 7.0292 0.0732407
27 1 Zr 178.49 6.73596 4.89017 2.35216
28 1 Zr 178.49 4.55442 7.30767 2.14274
29 2 N 14.007 6.72648 4.83117 -0.0506106
30 2 N 14.007 4.59286 6.87756 -0.133517
31 2 N 14.007 4.43232 4.91029 2.21606
32 2 N 14.007 6.80397 7.22622 2.0851
57 1 Zr 178.49 4.17403 4.61728 4.51105
58 1 Zr 178.49 7.06253 6.76738 4.31243
59 1 Zr 178.49 6.42873 4.57801 6.71354
60 1 Zr 178.49 4.70006 6.58148 7.00035
61 2 N 14.007 6.62699 4.54645 4.55391
62 2 N 14.007 4.81928 6.96552 4.4908
63 2 N 14.007 4.35315 4.40315 6.85836
64 2 N 14.007 7.1118 6.93779 6.54521
ITEM: TIMESTEP
800
ITEM: NUMBER OF ATOMS
64
ITEM: BOX BOUNDS pp pp pp
-3.9477060520098917e-05 9.0760394770604105e+00
-3.9477060520098917e-05 9.0760394770604105e+00
-3.9477060520098917e-05 9.0760394770604105e+00
ITEM: ATOMS id type element mass x y z
1 1 Zr 178.49 0.255138 -0.281165 -0.0722589
2 1 Zr 178.49 2.47038 2.04757 0.146755
3 1 Zr 178.49 2.58155 0.19723 2.175
4 1 Zr 178.49 0.0271472 2.31116 2.53362
5 2 N 14.007 2.59229 -0.220348 -0.248371
6 2 N 14.007 0.0443129 2.16865 0.24568
7 2 N 14.007 0.399339 -0.0865369 2.3805
8 2 N 14.007 2.29137 2.49421 2.34385
33 1 Zr 178.49 0.0414432 -0.112595 4.58717
34 1 Zr 178.49 2.09524 1.72091 4.37468
35 1 Zr 178.49 2.49879 0.187175 6.50815
36 1 Zr 178.49 -0.188347 2.2722 7.01607
37 2 N 14.007 2.4634 -0.311929 4.61826
38 2 N 14.007 -0.0693206 2.02063 4.86819
39 2 N 14.007 0.387576 -0.0761796 6.94754
40 2 N 14.007 2.11427 2.33229 7.01134
17 1 Zr 178.49 0.250544 4.34893 -0.236559
18 1 Zr 178.49 2.42756 6.75664 0.061895
19 1 Zr 178.49 1.96362 4.60337 2.48133
20 1 Zr 178.49 0.0237741 6.76518 1.72953
21 2 N 14.007 2.4232 4.3497 -0.0197716
22 2 N 14.007 0.0229248 6.64565 -0.298239
23 2 N 14.007 -0.0425892 4.73625 1.9366
24 2 N 14.007 2.30448 6.74783 2.38967
49 1 Zr 178.49 -0.254622 4.29798 4.21668
50 1 Zr 178.49 2.27882 6.59731 4.5692
51 1 Zr 178.49 2.23058 4.57597 6.85458
52 1 Zr 178.49 0.297022 6.74102 6.48106
53 2 N 14.007 2.02733 4.33104 4.58128
54 2 N 14.007 -0.107557 6.68756 4.25752
55 2 N 14.007 -0.304902 4.57929 6.49403
56 2 N 14.007 2.41798 6.65629 6.96852
9 1 Zr 178.49 4.85651 0.215277 -0.0860534
10 1 Zr 178.49 6.70111 2.30081 -0.0283354
11 1 Zr 178.49 7.32134 0.311517 2.23491
12 1 Zr 178.49 4.47959 2.3951 2.54691
13 2 N 14.007 7.04986 -0.0837815 -0.0633406
14 2 N 14.007 4.61909 2.44045 0.293356
15 2 N 14.007 4.95426 0.309192 2.25992
16 2 N 14.007 6.7732 2.61611 2.09533
41 1 Zr 178.49 4.68137 0.025622 4.56305
42 1 Zr 178.49 6.44355 2.31165 4.38751
43 1 Zr 178.49 7.15526 0.225414 6.54228
44 1 Zr 178.49 4.50801 2.0869 6.96673
45 2 N 14.007 7.07823 -0.106527 4.37397
46 2 N 14.007 4.40507 2.40679 4.68823
47 2 N 14.007 4.85949 -0.0731143 6.89353
48 2 N 14.007 6.69298 2.32874 6.65405
25 1 Zr 178.49 4.65512 4.65618 0.000717195
26 1 Zr 178.49 7.02295 6.77713 0.0349484
27 1 Zr 178.49 6.68937 4.77116 2.26258
28 1 Zr 178.49 4.34948 7.20285 2.38347
29 2 N 14.007 6.91593 4.50175 -0.216113
30 2 N 14.007 4.61347 6.77963 0.0899579
31 2 N 14.007 4.51443 4.90061 2.40793
32 2 N 14.007 6.85771 7.04032 2.07267
57 1 Zr 178.49 4.2681 4.69805 4.76713
58 1 Zr 178.49 6.7204 6.54355 4.43842
59 1 Zr 178.49 6.585 4.72303 6.85416
60 1 Zr 178.49 4.68303 6.69763 7.03159
61 2 N 14.007 6.6779 4.38737 4.42803
62 2 N 14.007 4.6985 6.95732 4.55088
63 2 N 14.007 4.37931 4.2515 6.84746
64 2 N 14.007 6.92986 7.01136 6.59192
ITEM: TIMESTEP
900
ITEM: NUMBER OF ATOMS
64
ITEM: BOX BOUNDS pp pp pp
-5.2937765570248985e-05 9.0760529377654589e+00
-5.2937765570248985e-05 9.0760529377654589e+00
-5.2937765570248985e-05 9.0760529377654589e+00
ITEM: ATOMS id type element mass x y z
1 1 Zr 178.49 0.152044 -0.121248 -0.0556038
2 1 Zr 178.49 2.34251 2.07038 0.141701
3 1 Zr 178.49 2.45577 0.0139276 1.9095
4 1 Zr 178.49 -0.11585 2.19819 2.41322
5 2 N 14.007 2.55681 -0.000940664 -0.130519
6 2 N 14.007 0.13641 2.08053 0.313371
7 2 N 14.007 0.350846 -0.00689303 2.34565
8 2 N 14.007 2.23214 2.14488 2.3362
33 1 Zr 178.49 0.180742 -0.168188 4.59552
34 1 Zr 178.49 1.95601 1.84266 4.31175
35 1 Zr 178.49 2.45664 0.112633 6.70754
36 1 Zr 178.49 -0.252821 2.36147 6.87436
37 2 N 14.007 2.45979 -0.162283 4.49207
38 2 N 14.007 -0.233836 2.18609 4.794
39 2 N 14.007 0.276649 0.0309108 6.89281
40 2 N 14.007 2.14427 2.29215 6.89628
17 1 Zr 178.49 0.421004 4.2607 -0.270276
18 1 Zr 178.49 2.46072 6.82014 0.00473685
19 1 Zr 178.49 2.14436 4.6127 2.51593
20 1 Zr 178.49 0.102114 7.0022 1.92481
21 2 N 14.007 2.38092 4.4759 -0.120071
22 2 N 14.007 0.198063 6.79759 -0.231751
23 2 N 14.007 -0.104451 4.55702 2.09545
24 2 N 14.007 2.3002 6.79551 2.32405
49 1 Zr 178.49 -0.0685698 4.38327 4.46421
50 1 Zr 178.49 2.31775 6.46049 4.42758
51 1 Zr 178.49 2.15858 4.57969 6.77798
52 1 Zr 178.49 0.335147 6.91786 6.41874
53 2 N 14.007 2.00165 4.27396 4.53303
54 2 N 14.007 -0.0638564 6.63051 4.27691
55 2 N 14.007 -0.256152 4.56289 6.65203
56 2 N 14.007 2.59551 6.77928 6.89367
9 1 Zr 178.49 4.92991 0.285499 -0.0272139
10 1 Zr 178.49 6.95973 2.17524 0.0971559
11 1 Zr 178.49 7.17625 0.165896 2.06375
12 1 Zr 178.49 4.64253 2.5678 2.57025
13 2 N 14.007 7.03257 0.071178 -0.123144
14 2 N 14.007 4.62534 2.48877 0.191367
15 2 N 14.007 4.7947 0.202395 2.09572
16 2 N 14.007 6.64737 2.47594 2.22996
41 1 Zr 178.49 4.85104 -0.0461274 4.39839
42 1 Zr 178.49 6.7051 1.99099 4.57869
43 1 Zr 178.49 6.97183 0.205457 6.68483
44 1 Zr 178.49 4.38767 2.18262 7.12752
45 2 N 14.007 7.11695 -0.110648 4.45679
46 2 N 14.007 4.39282 2.19629 4.70937
47 2 N 14.007 4.69049 -0.0284072 6.73899
48 2 N 14.007 6.58616 2.37 6.78552
25 1 Zr 178.49 4.56382 4.6825 0.106018
26 1 Zr 178.49 6.86037 6.54503 -0.126358
27 1 Zr 178.49 6.70945 4.82387 2.09075
28 1 Zr 178.49 4.29539 7.21873 2.52408
29 2 N 14.007 6.94199 4.43223 -0.1539
30 2 N 14.007 4.62098 6.97838 0.103858
31 2 N 14.007 4.36666 4.7047 2.30612
32 2 N 14.007 6.88627 7.11418 1.93394
57 1 Zr 178.49 4.21712 4.6476 4.96466
58 1 Zr 178.49 6.65888 6.5131 4.2756
59 1 Zr 178.49 6.75825 4.8552 6.77097
60 1 Zr 178.49 4.88674 6.8769 6.96464
61 2 N 14.007 6.67574 4.37968 4.60123
62 2 N 14.007 4.74039 6.90309 4.67667
63 2 N 14.007 4.30479 4.26193 6.85444
64 2 N 14.007 7.02107 7.05554 6.80165
ITEM: TIMESTEP
1000
ITEM: NUMBER OF ATOMS
64
ITEM: BOX BOUNDS pp pp pp
-6.8272641280842095e-05 9.0760682726411570e+00
-6.8272641280842095e-05 9.0760682726411570e+00
-6.8272641280842095e-05 9.0760682726411570e+00
ITEM: ATOMS id type element mass x y z
1 1 Zr 178.49 0.108552 -0.136409 0.209281
2 1 Zr 178.49 2.25663 2.02636 0.12249
3 1 Zr 178.49 2.39349 -0.0860635 1.78291
4 1 Zr 178.49 -0.196201 2.23534 2.40647
5 2 N 14.007 2.32518 -0.12261 -0.334359
6 2 N 14.007 0.143183 2.26595 0.201268
7 2 N 14.007 0.351729 0.00412666 2.37586
8 2 N 14.007 2.37121 2.27745 2.28
33 1 Zr 178.49 0.284728 -0.0751696 4.67632
34 1 Zr 178.49 2.04472 2.05304 4.41879
35 1 Zr 178.49 2.4204 0.00951238 6.61477
36 1 Zr 178.49 -0.329854 2.27195 6.91948
37 2 N 14.007 2.65055 -0.289382 4.45572
38 2 N 14.007 -0.108324 2.26946 4.60961
39 2 N 14.007 0.192104 0.0236583 6.77892
40 2 N 14.007 2.15525 2.26956 7.01581
17 1 Zr 178.49 0.209751 4.23485 -0.249866
18 1 Zr 178.49 2.44241 6.82981 0.0571993
19 1 Zr 178.49 2.20048 4.61747 2.27375
20 1 Zr 178.49 0.0455641 7.04767 2.08425
21 2 N 14.007 2.3672 4.58414 0.0495372
22 2 N 14.007 0.405384 6.69308 -0.402955
23 2 N 14.007 -0.080919 4.43353 1.98636
24 2 N 14.007 2.23421 6.67053 2.25593
49 1 Zr 178.49 -0.0209985 4.52901 4.33354
50 1 Zr 178.49 2.42681 6.47771 4.53031
51 1 Zr 178.49 2.28108 4.68075 6.95801
52 1 Zr 178.49 0.591054 6.87201 6.4728
53 2 N 14.007 1.93976 4.17466 4.59388
54 2 N 14.007 0.112067 6.73996 4.22688
55 2 N 14.007 -0.14951 4.32073 6.65782
56 2 N 14.007 2.63277 6.68282 6.81698
9 1 Zr 178.49 4.89129 0.395348 0.0345332
10 1 Zr 178.49 7.06844 2.10046 -0.0277503
11 1 Zr 178.49 6.94862 0.159013 1.99663
12 1 Zr 178.49 4.75849 2.70507 2.41049
13 2 N 14.007 7.04219 -0.137029 -0.176058
14 2 N 14.007 4.80318 2.59961 0.280997
15 2 N 14.007 4.81579 0.256617 2.08271
16 2 N 14.007 6.87733 2.39082 2.3203
41 1 Zr 178.49 4.98299 -1.00561e-06 4.39535
42 1 Zr 178.49 6.78743 2.04156 4.68917
43 1 Zr 178.49 6.95795 0.103804 6.82621
44 1 Zr 178.49 4.058 2.19513 7.20355
45 2 N 14.007 7.09889 -0.14915 4.18647
46 2 N 14.007 4.36829 2.39069 4.63777
47 2 N 14.007 4.71631 -0.0799726 6.65288
48 2 N 14.007 6.54033 2.24367 6.94179
25 1 Zr 178.49 4.71414 4.74101 0.300048
26 1 Zr 178.49 6.83504 6.64049 -0.0782472
27 1 Zr 178.49 6.73682 4.69747 2.1389
28 1 Zr 178.49 4.34777 7.17606 2.51953
29 2 N 14.007 6.91191 4.56544 -0.154426
30 2 N 14.007 4.6609 7.10348 -0.0682585
31 2 N 14.007 4.38175 4.81776 2.40443
32 2 N 14.007 6.65784 6.88968 1.9339
57 1 Zr 178.49 4.30793 4.56675 4.8536
58 1 Zr 178.49 6.842 6.59247 3.97803
59 1 Zr 178.49 6.68447 4.65877 6.54911
60 1 Zr 178.49 4.95281 6.81464 6.9547
61 2 N 14.007 6.56807 4.32118 4.61302
62 2 N 14.007 4.88684 6.84974 4.6201
63 2 N 14.007 4.39393 4.51318 6.92573
64 2 N 14.007 7.23785 6.85563 6.57662
ITEM: TIMESTEP
1100
ITEM: NUMBER OF ATOMS
64
ITEM: BOX BOUNDS pp pp pp
-8.5621426743287543e-05 9.0760856214266177e+00
-8.5621426743287543e-05 9.0760856214266177e+00
-8.5621426743287543e-05 9.0760856214266177e+00
ITEM: ATOMS id type element mass x y z
1 1 Zr 178.49 0.0291205 -0.202765 0.219543
2 1 Zr 178.49 2.24106 2.04557 0.138317
3 1 Zr 178.49 2.55121 0.099609 2.02112
4 1 Zr 178.49 0.0343737 2.33401 2.41669
5 2 N 14.007 2.19514 -0.236075 -0.190252
6 2 N 14.007 0.0256085 2.07698 0.063869
7 2 N 14.007 0.316921 -0.00998169 2.38733
8 2 N 14.007 2.45746 2.29372 2.50225
33 1 Zr 178.49 0.24468 0.0353518 4.67784
34 1 Zr 178.49 2.21376 1.98523 4.64112
35 1 Zr 178.49 2.34792 -0.0359124 6.54091
36 1 Zr 178.49 -0.280421 2.03084 6.8478
37 2 N 14.007 2.47849 -0.143665 4.46716
38 2 N 14.007 -0.181637 2.26862 4.49132
39 2 N 14.007 -0.0759237 -0.00603415 6.87761
40 2 N 14.007 1.97861 2.15168 6.93752
17 1 Zr 178.49 0.175395 4.48697 -0.151171
18 1 Zr 178.49 2.49966 6.86562 0.190841
19 1 Zr 178.49 2.15729 4.52171 2.20553
20 1 Zr 178.49 0.0283622 6.80899 2.15573
21 2 N 14.007 2.48558 4.40817 0.181422
22 2 N 14.007 0.175434 6.75493 -0.313399
23 2 N 14.007 -0.0145265 4.32358 2.03771
24 2 N 14.007 2.16002 6.7294 2.19355
49 1 Zr 178.49 -0.086081 4.57195 4.23803
50 1 Zr 178.49 2.57657 6.64184 4.55634
51 1 Zr 178.49 2.18594 4.61655 7.14239
52 1 Zr 178.49 0.359969 6.86124 6.37748
53 2 N 14.007 2.11296 4.40716 4.73714
54 2 N 14.007 0.298818 6.79208 4.27458
55 2 N 14.007 -0.104965 4.27124 6.77984
56 2 N 14.007 2.55015 6.7408 6.76446
9 1 Zr 178.49 4.86324 0.242052 -0.15941
10 1 Zr 178.49 6.92533 2.17932 -0.124077
11 1 Zr 178.49 6.88172 0.230871 1.96331
12 1 Zr 178.49 4.6738 2.5572 2.43925
13 2 N 14.007 6.86589 -0.0997947 -0.151185
14 2 N 14.007 4.74809 2.48152 0.242453
15 2 N 14.007 4.7657 0.327361 2.19278
16 2 N 14.007 6.83231 2.31921 2.32628
41 1 Zr 178.49 4.94386 0.0388666 4.4433
42 1 Zr 178.49 6.59921 2.19711 4.63255
43 1 Zr 178.49 6.93973 -0.0464496 6.61764
44 1 Zr 178.49 4.10524 2.18738 7.1203
45 2 N 14.007 7.02172 0.0338204 4.29581
46 2 N 14.007 4.3934 2.28602 4.73602
47 2 N 14.007 4.52215 -0.0794815 6.7381
48 2 N 14.007 6.54128 2.17259 6.871
25 1 Zr 178.49 4.82296 4.73497 0.35075
26 1 Zr 178.49 7.08014 6.91415 -0.157925