64
 Atoms. Timestep: 0
1 -4.611 -4.611 -4.611
1 -2.3055 -2.3055 -4.611
1 -2.3055 -4.611 -2.3055
1 -4.611 -2.3055 -2.3055
1 0 -4.611 -4.611
1 2.3055 -2.3055 -4.611
1 2.3055 -4.611 -2.3055
1 0 -2.3055 -2.3055
1 -4.611 0 -4.611
1 -2.3055 2.3055 -4.611
1 -2.3055 0 -2.3055
1 -4.611 2.3055 -2.3055
1 0 0 -4.611
1 2.3055 2.3055 -4.611
1 2.3055 0 -2.3055
1 0 2.3055 -2.3055
1 -4.611 -4.611 0
1 -2.3055 -2.3055 0
1 -2.3055 -4.611 2.3055
1 -4.611 -2.3055 2.3055
1 0 -4.611 0
1 2.3055 -2.3055 0
1 2.3055 -4.611 2.3055
1 0 -2.3055 2.3055
1 -4.611 0 0
1 -2.3055 2.3055 0
1 -2.3055 0 2.3055
1 -4.611 2.3055 2.3055
1 0 0 0
1 2.3055 2.3055 0
1 2.3055 0 2.3055
1 0 2.3055 2.3055
2 -2.3055 -4.611 -4.611
2 -4.611 -2.3055 -4.611
2 2.3055 -4.611 -4.611
2 0 -2.3055 -4.611
2 -2.3055 0 -4.611
2 -4.611 2.3055 -4.611
2 2.3055 0 -4.611
2 0 2.3055 -4.611
2 -4.611 -4.611 -2.3055
2 -2.3055 -2.3055 -2.3055
2 -2.3055 -4.611 0
2 -4.611 -2.3055 0
2 0 -4.611 -2.3055
2 2.3055 -2.3055 -2.3055
2 2.3055 -4.611 0
2 0 -2.3055 0
2 -4.611 0 -2.3055
2 -2.3055 2.3055 -2.3055
2 -2.3055 0 0
2 -4.611 2.3055 0
2 0 0 -2.3055
2 2.3055 2.3055 -2.3055
2 2.3055 0 0
2 0 2.3055 0
2 -4.611 -4.611 2.3055
2 -2.3055 -2.3055 2.3055
2 0 -4.611 2.3055
2 2.3055 -2.3055 2.3055
2 -4.611 0 2.3055
2 -2.3055 2.3055 2.3055
2 0 0 2.3055
2 2.3055 2.3055 2.3055
64
 Atoms. Timestep: 1
1 -4.61054 -4.61054 -4.61054
1 -2.30527 -2.30527 -4.61054
1 -2.30527 -4.61054 -2.30527
1 -4.61054 -2.30527 -2.30527
1 -1.86849e-19 -4.61054 -4.61054
1 2.30527 -2.30527 -4.61054
1 2.30527 -4.61054 -2.30527
1 -2.16637e-19 -2.30527 -2.30527
1 -4.61054 -1.92265e-19 -4.61054
1 -2.30527 2.30527 -4.61054
1 -2.30527 -2.16637e-19 -2.30527
1 -4.61054 2.30527 -2.30527
1 -2.2476e-19 -2.19345e-19 -4.61054
1 2.30527 2.30527 -4.61054
1 2.30527 -2.2476e-19 -2.30527
1 -2.20699e-19 2.30527 -2.30527
1 -4.61054 -4.61054 -2.08513e-19
1 -2.30527 -2.30527 -1.67893e-19
1 -2.30527 -4.61054 2.30527
1 -4.61054 -2.30527 2.30527
1 -2.35592e-19 -4.61054 -2.28822e-19
1 2.30527 -2.30527 -1.92265e-19
1 2.30527 -4.61054 2.30527
1 -2.36946e-19 -2.30527 2.30527
1 -4.61054 -2.20699e-19 -1.88203e-19
1 -2.30527 2.30527 -1.70601e-19
1 -2.30527 -2.09867e-19 2.30527
1 -4.61054 2.30527 2.30527
1 -2.41008e-19 -2.57256e-19 -2.19345e-19
1 2.30527 2.30527 -1.97681e-19
1 2.30527 -2.03097e-19 2.30527
1 -2.08513e-19 2.30527 2.30527
2 -2.30527 -4.61054 -4.61054
2 -4.61054 -2.30527 -4.61054
2 2.30527 -4.61054 -4.61054
2 -4.9691e-19 -2.30527 -4.61054
2 -2.30527 -5.02326e-19 -4.61054
2 -4.61054 2.30527 -4.61054
2 2.30527 -4.27857e-19 -4.61054
2 -4.38952e-19 2.30527 -4.61054
2 -4.61054 -4.61054 -2.30527
2 -2.30527 -2.30527 -2.30527
2 -2.30527 -4.61054 -5.0368e-19
2 -4.61054 -2.30527 -5.0368e-19
2 -5.02326e-19 -4.61054 -2.30527
2 2.30527 -2.30527 -2.30527
2 2.30527 -4.61054 -4.54937e-19
2 -5.32114e-19 -2.30527 -4.92848e-19
2 -4.61054 -5.0368e-19 -2.30527
2 -2.30527 2.30527 -2.30527
2 -2.30527 -5.44299e-19 -4.98264e-19
2 -4.61054 2.30527 -4.33273e-19
2 -4.84724e-19 -4.79308e-19 -2.30527
2 2.30527 2.30527 -2.30527
2 2.30527 -4.65769e-19 -4.38689e-19
2 -4.53583e-19 2.30527 -4.49521e-19
2 -4.61054 -4.61054 2.30527
2 -2.30527 -2.30527 2.30527
2 -4.63061e-19 -4.61054 2.30527
2 2.30527 -2.30527 2.30527
2 -4.61054 -4.49521e-19 2.30527
2 -2.30527 2.30527 2.30527
2 -4.42751e-19 -4.42751e-19 2.30527
2 2.30527 2.30527 2.30527
64
 Atoms. Timestep: 2
1 -4.61008 -4.61008 -4.61008
1 -2.30504 -2.30504 -4.61008
1 -2.30504 -4.61008 -2.30504
1 -4.61008 -2.30504 -2.30504
1 -3.59824e-19 -4.61008 -4.61008
1 2.30504 -2.30504 -4.61008
1 2.30504 -4.61008 -2.30504
1 -3.19836e-19 -2.30504 -2.30504
1 -4.61008 -3.58213e-19 -4.61008
1 -2.30504 2.30504 -4.61008
1 -2.30504 -3.3263e-19 -2.30504
1 -4.61008 2.30504 -2.30504
1 -3.39028e-19 -3.39023e-19 -4.61008
1 2.30504 2.30504 -4.61008
1 2.30504 -3.66209e-19 -2.30504
1 -3.67811e-19 2.30504 -2.30504
1 -4.61008 -4.61008 -3.42222e-19
1 -2.30504 -2.30504 -3.23032e-19
1 -2.30504 -4.61008 2.30504
1 -4.61008 -2.30504 2.30504
1 -3.19838e-19 -4.61008 -3.40623e-19
1 2.30504 -2.30504 -3.42222e-19
1 2.30504 -4.61008 2.30504
1 -3.59815e-19 -2.30504 2.30504
1 -4.61008 -3.40623e-19 -3.40623e-19
1 -2.30504 2.30504 -3.42222e-19
1 -2.30504 -3.59815e-19 2.30504
1 -4.61008 2.30504 2.30504
1 -3.16637e-19 -3.35825e-19 -3.42222e-19
1 2.30504 2.30504 -3.29428e-19
1 2.30504 -3.55015e-19 2.30504
1 -3.6941e-19 2.30504 2.30504
2 -2.30504 -4.61008 -4.61008
2 -4.61008 -2.30504 -4.61008
2 2.30504 -4.61008 -4.61008
2 -6.07678e-19 -2.30504 -4.61008
2 -2.30504 -6.07678e-19 -4.61008
2 -4.61008 2.30504 -4.61008
2 2.30504 -6.5246e-19 -4.61008
2 -6.45287e-19 2.30504 -4.61008
2 -4.61008 -4.61008 -2.30504
2 -2.30504 -2.30504 -2.30504
2 -2.30504 -4.61008 -7.22824e-19
2 -4.61008 -2.30504 -7.22824e-19
2 -7.11623e-19 -4.61008 -2.30504
2 2.30504 -2.30504 -2.30504
2 2.30504 -4.61008 -7.4841e-19
2 -7.34015e-19 -2.30504 -7.13227e-19
2 -4.61008 -7.22824e-19 -2.30504
2 -2.30504 2.30504 -2.30504
2 -2.30504 -7.34015e-19 -6.87641e-19
2 -4.61008 2.30504 -7.73997e-19
2 -6.87639e-19 -6.87641e-19 -2.30504
2 2.30504 2.30504 -2.30504
2 2.30504 -7.80394e-19 -7.61204e-19
2 -7.86783e-19 2.30504 -7.4841e-19
2 -4.61008 -4.61008 2.30504
2 -2.30504 -2.30504 2.30504
2 -6.81239e-19 -4.61008 2.30504
2 2.30504 -2.30504 2.30504
2 -4.61008 -7.16427e-19 2.30504
2 -2.30504 2.30504 2.30504
2 -7.08428e-19 -7.0843e-19 2.30504
2 2.30504 2.30504 2.30504
64
 Atoms. Timestep: 3
1 -4.60962 -4.60962 -4.60962
1 -2.30481 -2.30481 -4.60962
1 -2.30481 -4.60962 -2.30481
1 -4.60962 -2.30481 -2.30481
1 -2.83226e-19 -4.60962 -4.60962
1 2.30481 -2.30481 -4.60962
1 2.30481 -4.60962 -2.30481
1 -2.77356e-19 -2.30481 -2.30481
1 -4.60962 -2.79305e-19 -4.60962
1 -2.30481 2.30481 -4.60962
1 -2.30481 -2.77356e-19 -2.30481
1 -4.60962 2.30481 -2.30481
1 -2.96892e-19 -2.92977e-19 -4.60962
1 2.30481 2.30481 -4.60962
1 2.30481 -3.57432e-19 -2.30481
1 -3.41811e-19 2.30481 -2.30481
1 -4.60962 -4.60962 -3.45713e-19
1 -2.30481 -2.30481 -2.92977e-19
1 -2.30481 -4.60962 2.30481
1 -4.60962 -2.30481 2.30481
1 -3.06659e-19 -4.60962 -3.12509e-19
1 2.30481 -2.30481 -3.18368e-19
1 2.30481 -4.60962 2.30481
1 -3.06653e-19 -2.30481 2.30481
1 -4.60962 -3.22275e-19 -3.30088e-19
1 -2.30481 2.30481 -3.02743e-19
1 -2.30481 -3.06653e-19 2.30481
1 -4.60962 2.30481 2.30481
1 -3.32046e-19 -3.0079e-19 -3.08603e-19
1 2.30481 2.30481 -3.49619e-19
1 2.30481 -3.55479e-19 2.30481
1 -3.69155e-19 2.30481 2.30481
2 -2.30481 -4.60962 -4.60962
2 -4.60962 -2.30481 -4.60962
2 2.30481 -4.60962 -4.60962
2 -8.26183e-19 -2.30481 -4.60962
2 -2.30481 -8.26183e-19 -4.60962
2 -4.60962 2.30481 -4.60962
2 2.30481 -7.26583e-19 -4.60962
2 -7.15923e-19 2.30481 -4.60962
2 -4.60962 -4.60962 -2.30481
2 -2.30481 -2.30481 -2.30481
2 -2.30481 -4.60962 -7.65647e-19
2 -4.60962 -2.30481 -7.50021e-19
2 -7.94931e-19 -4.60962 -2.30481
2 2.30481 -2.30481 -2.30481
2 2.30481 -4.60962 -6.71894e-19
2 -8.53533e-19 -2.30481 -7.98849e-19
2 -4.60962 -7.81272e-19 -2.30481
2 -2.30481 2.30481 -2.30481
2 -2.30481 -8.69159e-19 -7.98849e-19
2 -4.60962 2.30481 -6.40643e-19
2 -8.45718e-19 -8.301e-19 -2.30481
2 2.30481 2.30481 -2.30481
2 2.30481 -7.57834e-19 -7.10958e-19
2 -7.46106e-19 2.30481 -6.79707e-19
2 -4.60962 -4.60962 2.30481
2 -2.30481 -2.30481 2.30481
2 -7.36342e-19 -4.60962 2.30481
2 2.30481 -2.30481 2.30481
2 -4.60962 -7.42209e-19 2.30481
2 -2.30481 2.30481 2.30481
2 -8.04705e-19 -7.96895e-19 2.30481
2 2.30481 2.30481 2.30481
64
 Atoms. Timestep: 4
1 -4.60916 -4.60916 -4.60916
1 -2.30458 -2.30458 -4.60916
1 -2.30458 -4.60916 -2.30458
1 -4.60916 -2.30458 -2.30458
1 -3.212e-19 -4.60916 -4.60916
1 2.30458 -2.30458 -4.60916
1 2.30458 -4.60916 -2.30458
1 -2.8605e-19 -2.30458 -2.30458
1 -4.60916 -3.4877e-19 -4.60916
1 -2.30458 2.30458 -4.60916
1 -2.30458 -2.8605e-19 -2.30458
1 -4.60916 2.30458 -2.30458
1 -3.3373e-19 -3.03605e-19 -4.60916
1 2.30458 2.30458 -4.60916
1 2.30458 -2.98587e-19 -2.30458
1 -2.91066e-19 2.30458 -2.30458
1 -4.60916 -4.60916 -3.11133e-19
1 -2.30458 -2.30458 -2.65968e-19
1 -2.30458 -4.60916 2.30458
1 -4.60916 -2.30458 2.30458
1 -2.48419e-19 -4.60916 -2.68477e-19
1 2.30458 -2.30458 -2.63459e-19
1 2.30458 -4.60916 2.30458
1 -2.88558e-19 -2.30458 2.30458
1 -4.60916 -2.73496e-19 -2.50913e-19
1 -2.30458 2.30458 -2.58441e-19
1 -2.30458 -2.88558e-19 2.30458
1 -4.60916 2.30458 2.30458
1 -2.96085e-19 -2.76005e-19 -2.81023e-19
1 2.30458 2.30458 -2.70987e-19
1 2.30458 -3.01096e-19 2.30458
1 -2.83538e-19 2.30458 2.30458
2 -2.30458 -4.60916 -4.60916
2 -4.60916 -2.30458 -4.60916
2 2.30458 -4.60916 -4.60916
2 -6.87482e-19 -2.30458 -4.60916
2 -2.30458 -6.97519e-19 -4.60916
2 -4.60916 2.30458 -4.60916
2 2.30458 -7.22631e-19 -4.60916
2 -7.13424e-19 2.30458 -4.60916
2 -4.60916 -4.60916 -2.30458
2 -2.30458 -2.30458 -2.30458
2 -2.30458 -4.60916 -6.52375e-19
2 -4.60916 -2.30458 -6.32302e-19
2 -7.20102e-19 -4.60916 -2.30458
2 2.30458 -2.30458 -2.30458
2 2.30458 -4.60916 -6.82485e-19
2 -6.72437e-19 -2.30458 -5.94661e-19
2 -4.60916 -6.92521e-19 -2.30458
2 -2.30458 2.30458 -2.30458
2 -2.30458 -6.49855e-19 -5.94661e-19
2 -4.60916 2.30458 -6.42338e-19
2 -6.64912e-19 -6.8499e-19 -2.30458
2 2.30458 2.30458 -2.30458
2 2.30458 -7.22631e-19 -6.32302e-19
2 -7.20104e-19 2.30458 -6.32302e-19
2 -4.60916 -4.60916 2.30458
2 -2.30458 -2.30458 2.30458
2 -6.72429e-19 -4.60916 2.30458
2 2.30458 -2.30458 2.30458
2 -4.60916 -6.72448e-19 2.30458
2 -2.30458 2.30458 2.30458
2 -6.87494e-19 -6.77462e-19 2.30458
2 2.30458 2.30458 2.30458
64
 Atoms. Timestep: 5
1 -4.60869 -4.60869 -4.60869
1 -2.30435 -2.30435 -4.60869
1 -2.30435 -4.60869 -2.30435
1 -4.60869 -2.30435 -2.30435
1 -6.52663e-19 -4.60869 -4.60869
1 2.30435 -2.30435 -4.60869
1 2.30435 -4.60869 -2.30435
1 -6.38603e-19 -2.30435 -2.30435
1 -4.60869 -6.63156e-19 -4.60869
1 -2.30435 2.30435 -4.60869
1 -2.30435 -6.31586e-19 -2.30435
1 -4.60869 2.30435 -2.30435
1 -6.59663e-19 -6.70174e-19 -4.60869
1 2.30435 2.30435 -4.60869
1 2.30435 -6.07016e-19 -2.30435
1 -6.52639e-19 2.30435 -2.30435
1 -4.60869 -4.60869 -6.66665e-19
1 -2.30435 -2.30435 -6.59648e-19
1 -2.30435 -4.60869 2.30435
1 -4.60869 -2.30435 2.30435
1 -6.84228e-19 -4.60869 -6.63156e-19
1 2.30435 -2.30435 -6.49121e-19
1 2.30435 -4.60869 2.30435
1 -6.38604e-19 -2.30435 2.30435
1 -4.60869 -6.66665e-19 -6.84209e-19
1 -2.30435 2.30435 -6.59648e-19
1 -2.30435 -6.45621e-19 2.30435
1 -4.60869 2.30435 2.30435
1 -6.31586e-19 -6.21051e-19 -6.5263e-19
1 2.30435 2.30435 -6.38595e-19
1 2.30435 -6.21051e-19 2.30435
1 -5.68429e-19 2.30435 2.30435
2 -2.30435 -4.60869 -4.60869
2 -4.60869 -2.30435 -4.60869
2 2.30435 -4.60869 -4.60869
2 -1.35085e-18 -2.30435 -4.60869
2 -2.30435 -1.35085e-18 -4.60869
2 -4.60869 2.30435 -4.60869
2 2.30435 -1.45965e-18 -4.60869
2 -1.4711e-18 2.30435 -4.60869
2 -4.60869 -4.60869 -2.30435
2 -2.30435 -2.30435 -2.30435
2 -2.30435 -4.60869 -1.15087e-18
2 -4.60869 -2.30435 -1.15087e-18
2 -1.22103e-18 -4.60869 -2.30435
2 2.30435 -2.30435 -2.30435
2 2.30435 -4.60869 -1.29122e-18
2 -1.31226e-18 -2.30435 -1.23859e-18
2 -4.60869 -1.29122e-18 -2.30435
2 -2.30435 2.30435 -2.30435
2 -2.30435 -1.31226e-18 -1.23859e-18
2 -4.60869 2.30435 -1.29122e-18
2 -1.35086e-18 -1.37894e-18 -2.30435
2 2.30435 2.30435 -2.30435
2 2.30435 -1.37544e-18 -1.29122e-18
2 -1.35787e-18 2.30435 -1.26315e-18
2 -4.60869 -4.60869 2.30435
2 -2.30435 -2.30435 2.30435
2 -1.37892e-18 -4.60869 2.30435
2 2.30435 -2.30435 2.30435
2 -4.60869 -1.43158e-18 2.30435
2 -2.30435 2.30435 2.30435
2 -1.45261e-18 -1.45262e-18 2.30435
2 2.30435 2.30435 2.30435
64
 Atoms. Timestep: 6
1 -4.60823 -4.60823 -4.60823
1 -2.30412 -2.30412 -4.60823
1 -2.30412 -4.60823 -2.30412
1 -4.60823 -2.30412 -2.30412
1 -8.98817e-19 -4.60823 -4.60823
1 2.30412 -2.30412 -4.60823
1 2.30412 -4.60823 -2.30412
1 -8.75396e-19 -2.30412 -2.30412
1 -4.60823 -8.05341e-19 -4.60823
1 -2.30412 2.30412 -4.60823
1 -2.30412 -8.75397e-19 -2.30412
1 -4.60823 2.30412 -2.30412
1 -9.68801e-19 -8.87042e-19 -4.60823
1 2.30412 2.30412 -4.60823
1 2.30412 -7.46983e-19 -2.30412
1 -8.52051e-19 2.30412 -2.30412
1 -4.60823 -4.60823 -7.93669e-19
1 -2.30412 -2.30412 -8.05341e-19
1 -2.30412 -4.60823 2.30412
1 -4.60823 -2.30412 2.30412
1 -8.11226e-19 -4.60823 -7.99505e-19
1 2.30412 -2.30412 -7.70326e-19
1 2.30412 -4.60823 2.30412
1 -9.45428e-19 -2.30412 2.30412
1 -4.60823 -7.76162e-19 -7.06132e-19
1 -2.30412 2.30412 -8.87042e-19
1 -2.30412 -9.45428e-19 2.30412
1 -4.60823 2.30412 2.30412
1 -9.22086e-19 -8.98714e-19 -8.40356e-19
1 2.30412 2.30412 -7.58655e-19
1 2.30412 -8.17013e-19 2.30412
1 -8.52059e-19 2.30412 2.30412
2 -2.30412 -4.60823 -4.60823
2 -4.60823 -2.30412 -4.60823
2 2.30412 -4.60823 -4.60823
2 -1.51724e-18 -2.30412 -4.60823
2 -2.30412 -1.51724e-18 -4.60823
2 -4.60823 2.30412 -4.60823
2 2.30412 -1.49397e-18 -4.60823
2 -1.52663e-18 2.30412 -4.60823
2 -4.60823 -4.60823 -2.30412
2 -2.30412 -2.30412 -2.30412
2 -2.30412 -4.60823 -1.564e-18
2 -4.60823 -2.30412 -1.54065e-18
2 -1.66897e-18 -4.60823 -2.30412
2 2.30412 -2.30412 -2.30412
2 2.30412 -4.60823 -1.54065e-18
2 -1.78571e-18 -2.30412 -1.62234e-18
2 -4.60823 -1.68071e-18 -2.30412
2 -2.30412 2.30412 -2.30412
2 -2.30412 -1.78571e-18 -1.62234e-18
2 -4.60823 2.30412 -1.54065e-18
2 -1.80906e-18 -1.80909e-18 -2.30412
2 2.30412 2.30412 -2.30412
2 2.30412 -1.7274e-18 -1.54065e-18
2 -1.73901e-18 2.30412 -1.54065e-18
2 -4.60823 -4.60823 2.30412
2 -2.30412 -2.30412 2.30412
2 -1.44721e-18 -4.60823 2.30412
2 2.30412 -2.30412 2.30412
2 -4.60823 -1.49397e-18 2.30412
2 -2.30412 2.30412 2.30412
2 -1.54061e-18 -1.54064e-18 2.30412
2 2.30412 2.30412 2.30412
64
 Atoms. Timestep: 7
1 -4.608 -4.608 -4.608
1 -2.304 -2.304 -4.608
1 -2.304 -4.608 -2.304
1 -4.608 -2.304 -2.304
1 -2.03795e-18 -4.608 -4.608
1 2.304 -2.304 -4.608
1 2.304 -4.608 -2.304
1 -2.35407e-18 -2.304 -2.304
1 -4.608 -2.07294e-18 -4.608
1 -2.304 2.304 -4.608
1 -2.304 -2.35407e-18 -2.304
1 -4.608 2.304 -2.304
1 -1.89734e-18 -1.95875e-18 -4.608
1 2.304 2.304 -4.608
1 2.304 -1.8797e-18 -2.304
1 -1.88853e-18 2.304 -2.304
1 -4.608 -4.608 -2.19591e-18
1 -2.304 -2.304 -2.47699e-18
1 -2.304 -4.608 2.304
1 -4.608 -2.304 2.304
1 -1.99398e-18 -4.608 -1.827e-18
1 2.304 -2.304 -2.01146e-18
1 2.304 -4.608 2.304
1 -2.23108e-18 -2.304 2.304
1 -4.608 -1.97632e-18 -1.84457e-18
1 -2.304 2.304 -2.01146e-18
1 -2.304 -2.23108e-18 2.304
1 -4.608 2.304 2.304
1 -2.24865e-18 -2.32767e-18 -2.23105e-18
1 2.304 2.304 -1.86213e-18
1 2.304 -2.03781e-18 2.304
1 -2.04663e-18 2.304 2.304
2 -2.304 -4.608 -4.608
2 -4.608 -2.304 -4.608
2 2.304 -4.608 -4.608
2 -2.57349e-18 -2.304 -4.608
2 -2.304 -2.57349e-18 -4.608
2 -4.608 2.304 -4.608
2 2.304 -3.44319e-18 -4.608
2 -3.42594e-18 2.304 -4.608
2 -4.608 -4.608 -2.304
2 -2.304 -2.304 -2.304
2 -2.304 -4.608 -2.03781e-18
2 -4.608 -2.304 -2.03781e-18
2 -2.86333e-18 -4.608 -2.304
2 2.304 -2.304 -2.304
2 2.304 -4.608 -2.88104e-18
2 -2.52965e-18 -2.304 -2.00265e-18
2 -4.608 -2.88104e-18 -2.304
2 -2.304 2.304 -2.304
2 -2.304 -2.59992e-18 -2.00265e-18
2 -4.608 2.304 -3.02158e-18
2 -2.9161e-18 -2.98642e-18 -2.304
2 2.304 2.304 -2.304
2 2.304 -3.54859e-18 -3.26752e-18
2 -3.50459e-18 2.304 -3.26752e-18
2 -4.608 -4.608 2.304
2 -2.304 -2.304 2.304
2 -2.95121e-18 -4.608 2.304
2 2.304 -2.304 2.304
2 -4.608 -3.02158e-18 2.304
2 -2.304 2.304 2.304
2 -3.32017e-18 -3.35534e-18 2.304
2 2.304 2.304 2.304
64
 Atoms. Timestep: 8
1 -4.608 -4.608 -4.608
1 -2.304 -2.304 -4.608
1 -2.304 -4.608 -2.304
1 -4.608 -2.304 -2.304
1 -1.64248e-18 -4.608 -4.608
1 2.304 -2.304 -4.608
1 2.304 -4.608 -2.304
1 -1.72134e-18 -2.304 -2.304
1 -4.608 -1.75644e-18 -4.608
1 -2.304 2.304 -4.608
1 -2.304 -1.72134e-18 -2.304
1 -4.608 2.304 -2.304
1 -1.63365e-18 -1.68619e-18 -4.608
1 2.304 2.304 -4.608
1 2.304 -1.66862e-18 -2.304
1 -1.66869e-18 2.304 -2.304
1 -4.608 -4.608 -1.77401e-18
1 -2.304 -2.304 -1.75644e-18
1 -2.304 -4.608 2.304
1 -4.608 -2.304 2.304
1 -1.65117e-18 -4.608 -1.7301e-18
1 2.304 -2.304 -1.73888e-18
1 2.304 -4.608 2.304
1 -1.72135e-18 -2.304 2.304
1 -4.608 -1.65984e-18 -1.65984e-18
1 -2.304 2.304 -1.70375e-18
1 -2.304 -1.72136e-18 2.304
1 -4.608 2.304 2.304
1 -1.54574e-18 -1.47541e-18 -1.47541e-18
1 2.304 2.304 -1.61593e-18
1 2.304 -1.59836e-18 2.304
1 -1.59843e-18 2.304 2.304
2 -2.304 -4.608 -4.608
2 -4.608 -2.304 -4.608
2 2.304 -4.608 -4.608
2 -2.45884e-18 -2.304 -4.608
2 -2.304 -2.38858e-18 -4.608
2 -4.608 2.304 -4.608
2 2.304 -2.95083e-18 -4.608
2 -2.83841e-18 2.304 -4.608
2 -4.608 -4.608 -2.304
2 -2.304 -2.304 -2.304
2 -2.304 -4.608 -2.49415e-18
2 -4.608 -2.304 -2.49415e-18
2 -2.51157e-18 -4.608 -2.304
2 2.304 -2.304 -2.304
2 2.304 -4.608 -2.9157e-18
2 -2.95072e-18 -2.304 -3.05622e-18
2 -4.608 -2.49415e-18 -2.304
2 -2.304 2.304 -2.304
2 -2.304 -3.0561e-18 -2.74006e-18
2 -4.608 2.304 -2.9157e-18
2 -3.12634e-18 -3.05619e-18 -2.304
2 2.304 2.304 -2.304
2 2.304 -3.30211e-18 -3.1616e-18
2 -3.3196e-18 2.304 -3.30211e-18
2 -4.608 -4.608 2.304
2 -2.304 -2.304 2.304
2 -2.97704e-18 -4.608 2.304
2 2.304 -2.304 2.304
2 -4.608 -2.98595e-18 2.304
2 -2.304 2.304 2.304
2 -3.40738e-18 -3.40746e-18 2.304
2 2.304 2.304 2.304
64
 Atoms. Timestep: 9
1 -4.608 -4.608 -4.608
1 -2.304 -2.304 -4.608
1 -2.304 -4.608 -2.304
1 -4.608 -2.304 -2.304
1 -2.13465e-18 -4.608 -4.608
1 2.304 -2.304 -4.608
1 2.304 -4.608 -2.304
1 -2.0203e-18 -2.304 -2.304
1 -4.608 -2.1432e-18 -4.608
1 -2.304 2.304 -4.608
1 -2.304 -2.09057e-18 -2.304
1 -4.608 2.304 -2.304
1 -2.02039e-18 -2.15198e-18 -4.608
1 2.304 2.304 -4.608
1 2.304 -2.05536e-18 -2.304
1 -2.09057e-18 2.304 -2.304
1 -4.608 -4.608 -2.10806e-18
1 -2.304 -2.304 -2.0905e-18
1 -2.304 -4.608 2.304
1 -4.608 -2.304 2.304
1 -2.03795e-18 -4.608 -2.0905e-18
1 2.304 -2.304 -1.94996e-18
1 2.304 -4.608 2.304
1 -2.13448e-18 -2.304 2.304
1 -4.608 -2.02023e-18 -2.02023e-18
1 -2.304 2.304 -1.98509e-18
1 -2.304 -2.13448e-18 2.304
1 -4.608 2.304 2.304
1 -2.07303e-18 -2.10806e-18 -2.10806e-18
1 2.304 2.304 -2.1959e-18
1 2.304 -2.23982e-18 2.304
1 -2.20476e-18 2.304 2.304
2 -2.304 -4.608 -4.608
2 -4.608 -2.304 -4.608
2 2.304 -4.608 -4.608
2 -4.38274e-18 -2.304 -4.608
2 -2.304 -4.48814e-18 -4.608
2 -4.608 2.304 -4.608
2 2.304 -4.18099e-18 -4.608
2 -4.27021e-18 2.304 -4.608
2 -4.608 -4.608 -2.304
2 -2.304 -2.304 -2.304
2 -2.304 -4.608 -4.42693e-18
2 -4.608 -2.304 -4.42693e-18
2 -4.44425e-18 -4.608 -2.304
2 2.304 -2.304 -2.304
2 2.304 -4.608 -4.11073e-18
2 -4.40043e-18 -2.304 -4.36541e-18
2 -4.608 -4.42693e-18 -2.304
2 -2.304 2.304 -2.304
2 -2.304 -4.50583e-18 -4.36541e-18
2 -4.608 2.304 -4.11073e-18
2 -4.29503e-18 -4.36541e-18 -2.304
2 2.304 2.304 -2.304
2 2.304 -4.07559e-18 -4.00532e-18
2 -4.014e-18 2.304 -4.00532e-18
2 -4.608 -4.608 2.304
2 -2.304 -2.304 2.304
2 -4.35655e-18 -4.608 2.304
2 2.304 -2.304 2.304
2 -4.608 -4.32153e-18 2.304
2 -2.304 2.304 2.304
2 -4.23361e-18 -4.23365e-18 2.304
2 2.304 2.304 2.304
