LAMMPS (23 Jun 2022 - Update 1)
# Compute elastic constant tensor for a crystal
#
# Written by Aidan Thompson (Sandia, athomps@sandia.gov)
#
#  This script uses the following three include files.
#
#   init.mod      (must be modified for different crystal structures)
# 	       	  Define units, deformation parameters and initial
#		  configuration of the atoms and simulation cell.
#
#
#   potential.mod    (must be modified for different pair styles)
# 		     Define pair style and other attributes
#		     not stored in restart file
#
#
#   displace.mod    (displace.mod should not need to be modified)
# 		    Perform positive and negative box displacements
# 		    in direction ${dir} and size ${up}.
# 		    It uses the resultant changes
#		    in stress to compute one
# 		    row of the elastic stiffness tensor
#
#		    Inputs variables:
#		    	   dir = the Voigt deformation component
#		    		    (1,2,3,4,5,6)
#		    Global constants:
#       	    	   up = the deformation magnitude (strain units)
#       		   cfac = conversion from LAMMPS pressure units to
#               	   output units for elastic constants
#
#
#  To run this on a different system, it should only be necessary to
#  modify the files init.mod and potential.mod. In order to calculate
#  the elastic constants correctly, care must be taken to specify
#  the correct units in init.mod (units, cfac and cunits). It is also
#  important to verify that the minimization of energy w.r.t atom
#  positions in the deformed cell is fully converged.
#  One indication of this is that the elastic constants are insensitive
#  to the choice of the variable ${up} in init.mod. Another is to check
#  the final max and two-norm forces reported in the log file. If you know
#  that minimization is not required, you can set maxiter = 0.0 in
#  init.mod.
#

include init.mod
# NOTE: This script can be modified for different atomic structures,
# units, etc. See in.elastic for more info.
#

# Define the finite deformation size. Try several values of this
# variable to verify that results do not depend on it.
variable up equal 1.0e-5

# Define the amount of random jiggle for atoms
# This prevents atoms from staying on saddle points
variable atomjiggle equal 1.0e-6

# metal units, elastic constants in GPa
units		metal
variable cfac equal 1.0e-4
variable cunits string GPa

# Define minimization parameters
variable etol equal 0.0
variable ftol equal 1.0e-12
variable maxiter equal 1000
variable maxeval equal 1000
variable dmax equal 1.0e-2

# generate the box and atom positions using a diamond lattice
# variable a equal 5.43

boundary	p p p

lattice     fcc 4.611
Lattice spacing in x,y,z = 4.611 4.611 4.611
region		simbox prism -1.0 1.0 -1.0 1.0 -1.0 1.0 0.0 0.0 0.0
create_box	2 simbox
Created triclinic box = (-4.611 -4.611 -4.611) to (4.611 4.611 4.611) with tilt (0 0 0)
  1 by 1 by 1 MPI processor grid
lattice 		fcc 4.611 orient x 1 0 0 orient y 0 1 0 orient z 0 0 1
Lattice spacing in x,y,z = 4.611 4.611 4.611
create_atoms	1 region simbox
Created 32 atoms
  using lattice units in triclinic box = (-4.611 -4.611 -4.611) to (4.611 4.611 4.611) with tilt (0 0 0)
  create_atoms CPU = 0.001 seconds
lattice 		fcc 4.611 origin 0 0 0.5 orient x 1 0 0 orient y 0 1 0 orient z 0 0 1
Lattice spacing in x,y,z = 4.611 4.611 4.611
create_atoms	2 region simbox
Created 32 atoms
  using lattice units in triclinic box = (-4.611 -4.611 -4.611) to (4.611 4.611 4.611) with tilt (0 0 0)
  create_atoms CPU = 0.000 seconds
dump DUMPFILE all xyz 1 dump.xyz

# Need to set mass to something, just to satisfy LAMMPS
mass 1 91.224
mass 2 14.007

include potential.mod
# NOTE: This script can be modified for different pair styles
# See in.elastic for more info.

# Choose potential
pair_style	meam
pair_coeff * * library_ZrN.meam Zr N ZrN.meam Zr N
Reading MEAM library file library_ZrN.meam with DATE: 2015-02-12

# Setup neighbor style
neighbor 1.0 nsq
neigh_modify once no every 1 delay 0 check yes

# Setup minimization style
min_style	     cg
min_modify	     dmax ${dmax} line quadratic
min_modify	     dmax 0.01 line quadratic

# Setup output
thermo		1
thermo_style custom step temp pe press pxx pyy pzz pxy pxz pyz lx ly lz vol
thermo_modify norm no

# Compute initial state
fix 3 all box/relax  aniso 0.0
minimize ${etol} ${ftol} ${maxiter} ${maxeval}
minimize 0 ${ftol} ${maxiter} ${maxeval}
minimize 0 1e-12 ${maxiter} ${maxeval}
minimize 0 1e-12 1000 ${maxeval}
minimize 0 1e-12 1000 1000
Neighbor list info ...
  update every 1 steps, delay 0 steps, check yes
  max neighbors/atom: 2000, page size: 100000
  master list distance cutoff = 6.26
  ghost atom cutoff = 6.26
  2 neighbor lists, perpetual/occasional/extra = 2 0 0
  (1) pair meam, perpetual
      attributes: full, newton on
      pair build: full/nsq
      stencil: none
      bin: none
  (2) pair meam, perpetual, half/full from (1)
      attributes: half, newton on
      pair build: halffull/newton
      stencil: none
      bin: none
Per MPI rank memory allocation (min/avg/max) = 10.94 | 10.94 | 10.94 Mbytes
   Step          Temp          PotEng         Press           Pxx            Pyy            Pzz            Pxy            Pxz            Pyz             Lx             Ly             Lz           Volume    
         0   0             -472.766       -4187.6792     -4187.6792     -4187.6792     -4187.6792     -1.8144091e-11 -2.3587319e-11  3.2659364e-11  9.222          9.222          9.222          784.28761    
         1   0             -472.76657     -3546.3225     -3546.3225     -3546.3225     -3546.3225     -1.9056491e-11 -1.2705197e-11  3.2669164e-11  9.2210778      9.2210778      9.2210778      784.05235    
         2   0             -472.76704     -2904.1334     -2904.1334     -2904.1334     -2904.1334     -2.7224796e-12  3.26782e-11    1.8154982e-11  9.2201556      9.2201556      9.2201556      783.81713    
         3   0             -472.76742     -2261.1113     -2261.1113     -2261.1113     -2261.1113      3.99538e-11    4.3584181e-11  1.4528345e-11  9.2192334      9.2192334      9.2192334      783.58196    
         4   0             -472.7677      -1617.2555     -1617.2555     -1617.2555     -1617.2555      9.0837913e-12  2.1798207e-11  1.0899529e-11  9.2183112      9.2183112      9.2183112      783.34684    
         5   0             -472.76789     -972.56562     -972.56562     -972.56562     -972.56562      1.0904556e-11  4.9969415e-11  7.2685338e-12  9.217389       9.217389       9.217389       783.11177    
         6   0             -472.76799     -327.04094     -327.04094     -327.04094     -327.04094     -3.4534077e-11 -5.4548607e-12  0              9.2164668      9.2164668      9.2164668      782.87674    
         7   0             -472.768       -0.072109185   -0.072109185   -0.072109185   -0.072109185    1.2729781e-11  6.358748e-12   2.9087282e-11  9.2160001      9.2160001      9.2160001      782.75783    
         8   0             -472.768       -1.1340201e-05 -1.1340215e-05 -1.1340217e-05 -1.134017e-05   1.3638056e-11  1.2722294e-11  1.4543641e-11  9.216          9.216          9.216          782.7578     
         9   0             -472.768       -5.7992769e-10 -5.6356608e-10 -5.7810974e-10 -5.9810725e-10 -1.6356492e-11  7.2667166e-12 -3.6359103e-12  9.216          9.216          9.216          782.7578     
Loop time of 0.0192209 on 1 procs for 9 steps with 64 atoms

97.8% CPU use with 1 MPI tasks x no OpenMP threads

Minimization stats:
  Stopping criterion = force tolerance
  Energy initial, next-to-last, final = 
     -472.765997508088  -472.768000013945  -472.768000013949
  Force two-norm initial, final = 3.5505778 5.3331633e-13
  Force max component initial, final = 2.049927 2.9240094e-13
  Final line search alpha, max atom move = 1 2.9240094e-13
  Iterations, force evaluations = 9 12

MPI task timing breakdown:
Section |  min time  |  avg time  |  max time  |%varavg| %total
---------------------------------------------------------------
Pair    | 0.018157   | 0.018157   | 0.018157   |   0.0 | 94.47
Neigh   | 0          | 0          | 0          |   0.0 |  0.00
Comm    | 4.8595e-05 | 4.8595e-05 | 4.8595e-05 |   0.0 |  0.25
Output  | 0.00068567 | 0.00068567 | 0.00068567 |   0.0 |  3.57
Modify  | 0          | 0          | 0          |   0.0 |  0.00
Other   |            | 0.0003292  |            |       |  1.71

Nlocal:             64 ave          64 max          64 min
Histogram: 1 0 0 0 0 0 0 0 0 0
Nghost:            665 ave         665 max         665 min
Histogram: 1 0 0 0 0 0 0 0 0 0
Neighs:           2560 ave        2560 max        2560 min
Histogram: 1 0 0 0 0 0 0 0 0 0
FullNghs:         5120 ave        5120 max        5120 min
Histogram: 1 0 0 0 0 0 0 0 0 0

Total # of neighbors = 5120
Ave neighs/atom = 80
Neighbor list builds = 0
Dangerous builds = 0

variable tmp equal pxx
variable pxx0 equal ${tmp}
variable pxx0 equal -5.63566077113109e-10
variable tmp equal pyy
variable pyy0 equal ${tmp}
variable pyy0 equal -5.78109744699513e-10
variable tmp equal pzz
variable pzz0 equal ${tmp}
variable pzz0 equal -5.98107251591635e-10
variable tmp equal pyz
variable pyz0 equal ${tmp}
variable pyz0 equal -3.6359103440221e-12
variable tmp equal pxz
variable pxz0 equal ${tmp}
variable pxz0 equal 7.26671662883385e-12
variable tmp equal pxy
variable pxy0 equal ${tmp}
variable pxy0 equal -1.63564924888891e-11

variable tmp equal lx
variable lx0 equal ${tmp}
variable lx0 equal 9.2160000424006
variable tmp equal ly
variable ly0 equal ${tmp}
variable ly0 equal 9.2160000424006
variable tmp equal lz
variable lz0 equal ${tmp}
variable lz0 equal 9.2160000424006

# These formulas define the derivatives w.r.t. strain components
# Constants uses $, variables use v_
variable d1 equal -(v_pxx1-${pxx0})/(v_delta/v_len0)*${cfac}
variable d1 equal -(v_pxx1--5.63566077113109e-10)/(v_delta/v_len0)*${cfac}
variable d1 equal -(v_pxx1--5.63566077113109e-10)/(v_delta/v_len0)*0.0001
variable d2 equal -(v_pyy1-${pyy0})/(v_delta/v_len0)*${cfac}
variable d2 equal -(v_pyy1--5.78109744699513e-10)/(v_delta/v_len0)*${cfac}
variable d2 equal -(v_pyy1--5.78109744699513e-10)/(v_delta/v_len0)*0.0001
variable d3 equal -(v_pzz1-${pzz0})/(v_delta/v_len0)*${cfac}
variable d3 equal -(v_pzz1--5.98107251591635e-10)/(v_delta/v_len0)*${cfac}
variable d3 equal -(v_pzz1--5.98107251591635e-10)/(v_delta/v_len0)*0.0001
variable d4 equal -(v_pyz1-${pyz0})/(v_delta/v_len0)*${cfac}
variable d4 equal -(v_pyz1--3.6359103440221e-12)/(v_delta/v_len0)*${cfac}
variable d4 equal -(v_pyz1--3.6359103440221e-12)/(v_delta/v_len0)*0.0001
variable d5 equal -(v_pxz1-${pxz0})/(v_delta/v_len0)*${cfac}
variable d5 equal -(v_pxz1-7.26671662883385e-12)/(v_delta/v_len0)*${cfac}
variable d5 equal -(v_pxz1-7.26671662883385e-12)/(v_delta/v_len0)*0.0001
variable d6 equal -(v_pxy1-${pxy0})/(v_delta/v_len0)*${cfac}
variable d6 equal -(v_pxy1--1.63564924888891e-11)/(v_delta/v_len0)*${cfac}
variable d6 equal -(v_pxy1--1.63564924888891e-11)/(v_delta/v_len0)*0.0001

displace_atoms all random ${atomjiggle} ${atomjiggle} ${atomjiggle} 87287 units box
displace_atoms all random 1e-06 ${atomjiggle} ${atomjiggle} 87287 units box
displace_atoms all random 1e-06 1e-06 ${atomjiggle} 87287 units box
displace_atoms all random 1e-06 1e-06 1e-06 87287 units box
Displacing atoms ...

# Write restart
unfix 3
write_restart restart.equil
System init for write_restart ...

# uxx Perturbation

variable dir equal 1
include displace.mod
# NOTE: This script should not need to be
# modified. See in.elastic for more info.
#
# Find which reference length to use

if "${dir} == 1" then    "variable len0 equal ${lx0}"
variable len0 equal ${lx0}
variable len0 equal 9.2160000424006
if "${dir} == 2" then    "variable len0 equal ${ly0}"
if "${dir} == 3" then    "variable len0 equal ${lz0}"
if "${dir} == 4" then    "variable len0 equal ${lz0}"
if "${dir} == 5" then    "variable len0 equal ${lz0}"
if "${dir} == 6" then    "variable len0 equal ${ly0}"

# Reset box and simulation parameters

clear
box tilt large
read_restart restart.equil
Reading restart file ...
  restart file = 23 Jun 2022, LAMMPS = 23 Jun 2022
  restoring atom style atomic from restart
  triclinic box = (-4.608 -4.608 -4.608) to (4.608 4.608 4.608) with tilt (0 0 0)
  1 by 1 by 1 MPI processor grid
  pair style meam stores no restart info
  64 atoms
  read_restart CPU = 0.001 seconds
include potential.mod
# NOTE: This script can be modified for different pair styles
# See in.elastic for more info.

# Choose potential
pair_style	meam
pair_coeff * * library_ZrN.meam Zr N ZrN.meam Zr N
Reading MEAM library file library_ZrN.meam with DATE: 2015-02-12

# Setup neighbor style
neighbor 1.0 nsq
neigh_modify once no every 1 delay 0 check yes

# Setup minimization style
min_style	     cg
min_modify	     dmax ${dmax} line quadratic
min_modify	     dmax 0.01 line quadratic

# Setup output
thermo		1
thermo_style custom step temp pe press pxx pyy pzz pxy pxz pyz lx ly lz vol
thermo_modify norm no

# Negative deformation

variable delta equal -${up}*${len0}
variable delta equal -1e-05*${len0}
variable delta equal -1e-05*9.2160000424006
variable deltaxy equal -${up}*xy
variable deltaxy equal -1e-05*xy
variable deltaxz equal -${up}*xz
variable deltaxz equal -1e-05*xz
variable deltayz equal -${up}*yz
variable deltayz equal -1e-05*yz
if "${dir} == 1" then    "change_box all x delta 0 ${delta} xy delta ${deltaxy} xz delta ${deltaxz} remap units box"
change_box all x delta 0 ${delta} xy delta ${deltaxy} xz delta ${deltaxz} remap units box
change_box all x delta 0 -9.2160000424006e-05 xy delta ${deltaxy} xz delta ${deltaxz} remap units box
change_box all x delta 0 -9.2160000424006e-05 xy delta -0 xz delta ${deltaxz} remap units box
change_box all x delta 0 -9.2160000424006e-05 xy delta -0 xz delta -0 remap units box
Changing box ...
  triclinic box = (-4.608 -4.608 -4.608) to (4.6079079 4.608 4.608) with tilt (0 0 0)
  triclinic box = (-4.608 -4.608 -4.608) to (4.6079079 4.608 4.608) with tilt (0 0 0)
  triclinic box = (-4.608 -4.608 -4.608) to (4.6079079 4.608 4.608) with tilt (0 0 0)
if "${dir} == 2" then    "change_box all y delta 0 ${delta} yz delta ${deltayz} remap units box"
if "${dir} == 3" then    "change_box all z delta 0 ${delta} remap units box"
if "${dir} == 4" then    "change_box all yz delta ${delta} remap units box"
if "${dir} == 5" then    "change_box all xz delta ${delta} remap units box"
if "${dir} == 6" then    "change_box all xy delta ${delta} remap units box"

# Relax atoms positions

minimize ${etol} ${ftol} ${maxiter} ${maxeval}
minimize 0 ${ftol} ${maxiter} ${maxeval}
minimize 0 1e-12 ${maxiter} ${maxeval}
minimize 0 1e-12 1000 ${maxeval}
minimize 0 1e-12 1000 1000
Neighbor list info ...
  update every 1 steps, delay 0 steps, check yes
  max neighbors/atom: 2000, page size: 100000
  master list distance cutoff = 6.26
  ghost atom cutoff = 6.26
  2 neighbor lists, perpetual/occasional/extra = 2 0 0
  (1) pair meam, perpetual
      attributes: full, newton on
      pair build: full/nsq
      stencil: none
      bin: none
  (2) pair meam, perpetual, half/full from (1)
      attributes: half, newton on
      pair build: halffull/newton
      stencil: none
      bin: none
Per MPI rank memory allocation (min/avg/max) = 9.918 | 9.918 | 9.918 Mbytes
   Step          Temp          PotEng         Press           Pxx            Pyy            Pzz            Pxy            Pxz            Pyz             Lx             Ly             Lz           Volume    
         9   0             -472.768        21.532336      48.071455      8.2627768      8.262777      -6.3989481e-08  2.7171089e-08  7.2119003e-09  9.2159079      9.216          9.216          782.74997    
        10   0             -472.768        21.532335      48.071453      8.2627758      8.2627758     -2.420177e-09  -5.8418301e-09 -3.7582054e-09  9.2159079      9.216          9.216          782.74997    
        11   0             -472.768        21.532335      48.071453      8.2627758      8.2627757      9.7261574e-10 -6.4086969e-09  7.5673141e-10  9.2159079      9.216          9.216          782.74997    
        12   0             -472.768        21.532335      48.071453      8.2627757      8.2627757      9.7079777e-10 -1.286557e-09   6.7174115e-10  9.2159079      9.216          9.216          782.74997    
        13   0             -472.768        21.532335      48.071453      8.2627757      8.2627757      1.670263e-10  -5.0403311e-10  3.2359926e-10  9.2159079      9.216          9.216          782.74997    
        14   0             -472.768        21.532335      48.071453      8.2627757      8.2627757     -1.227132e-11  -1.227132e-10   1.227132e-10   9.2159079      9.216          9.216          782.74997    
        15   0             -472.768        21.532335      48.071453      8.2627757      8.2627757      6.1129354e-11 -6.9651104e-11  4.9994267e-11  9.2159079      9.216          9.216          782.74997    
        16   0             -472.768        21.532335      48.071453      8.2627757      8.2627757      1.5225527e-11 -3.2155404e-11 -2.2724667e-12  9.2159079      9.216          9.216          782.74997    
        17   0             -472.768        21.532335      48.071453      8.2627757      8.2627757      3.1814534e-12  8.2945034e-12  7.7263867e-12  9.2159079      9.216          9.216          782.74997    
        18   0             -472.768        21.532335      48.071453      8.2627757      8.2627757      1.090784e-11   3.476874e-11  -4.226788e-11   9.2159079      9.216          9.216          782.74997    
        19   0             -472.768        21.532335      48.071453      8.2627757      8.2627757     -2.4315394e-11  3.7041207e-11 -3.4541494e-11  9.2159079      9.216          9.216          782.74997    
        20   0             -472.768        21.532335      48.071453      8.2627757      8.2627757     -1.70435e-11    1.2044073e-11  1.8634227e-11  9.2159079      9.216          9.216          782.74997    
        21   0             -472.768        21.532335      48.071453      8.2627757      8.2627757     -2.113394e-11  -2.72696e-12   -7.7263867e-12  9.2159079      9.216          9.216          782.74997    
        22   0             -472.768        21.532335      48.071453      8.2627757      8.2627757      4.5449334e-13  2.317916e-11  -2.72696e-12    9.2159079      9.216          9.216          782.74997    
        23   0             -472.768        21.532335      48.071453      8.2627757      8.2627757     -4.9994267e-12  2.72696e-11   -2.6360614e-11  9.2159079      9.216          9.216          782.74997    
        24   0             -472.768        21.532335      48.071453      8.2627757      8.2627757      1.0680593e-11 -1.3862047e-11 -2.999656e-11   9.2159079      9.216          9.216          782.74997    
        25   0             -472.768        21.532335      48.071453      8.2627757      8.2627757      3.0451054e-11  9.3171134e-12 -1.3180307e-11  9.2159079      9.216          9.216          782.74997    
        26   0             -472.768        21.532335      48.071453      8.2627757      8.2627757      1.0680593e-11  1.738437e-11  -3.272352e-11   9.2159079      9.216          9.216          782.74997    
        27   0             -472.768        21.532335      48.071453      8.2627757      8.2627757     -9.9988534e-12 -1.568002e-11  -2.9087574e-11  9.2159079      9.216          9.216          782.74997    
Loop time of 0.0513581 on 1 procs for 18 steps with 64 atoms

99.4% CPU use with 1 MPI tasks x no OpenMP threads

Minimization stats:
  Stopping criterion = force tolerance
  Energy initial, next-to-last, final = 
     -472.767999896161  -472.767999896518  -472.767999896519
  Force two-norm initial, final = 0.00010301018 6.2832702e-13
  Force max component initial, final = 1.949646e-05 1.2279067e-13
  Final line search alpha, max atom move = 1 1.2279067e-13
  Iterations, force evaluations = 18 36

MPI task timing breakdown:
Section |  min time  |  avg time  |  max time  |%varavg| %total
---------------------------------------------------------------
Pair    | 0.050824   | 0.050824   | 0.050824   |   0.0 | 98.96
Neigh   | 0          | 0          | 0          |   0.0 |  0.00
Comm    | 0.00012078 | 0.00012078 | 0.00012078 |   0.0 |  0.24
Output  | 0.00027918 | 0.00027918 | 0.00027918 |   0.0 |  0.54
Modify  | 0          | 0          | 0          |   0.0 |  0.00
Other   |            | 0.0001339  |            |       |  0.26

Nlocal:             64 ave          64 max          64 min
Histogram: 1 0 0 0 0 0 0 0 0 0
Nghost:            665 ave         665 max         665 min
Histogram: 1 0 0 0 0 0 0 0 0 0
Neighs:           2560 ave        2560 max        2560 min
Histogram: 1 0 0 0 0 0 0 0 0 0
FullNghs:         5120 ave        5120 max        5120 min
Histogram: 1 0 0 0 0 0 0 0 0 0

Total # of neighbors = 5120
Ave neighs/atom = 80
Neighbor list builds = 0
Dangerous builds = 0

# Obtain new stress tensor

variable tmp equal pxx
variable pxx1 equal ${tmp}
variable pxx1 equal 48.0714531350932
variable tmp equal pyy
variable pyy1 equal ${tmp}
variable pyy1 equal 8.26277574195359
variable tmp equal pzz
variable pzz1 equal ${tmp}
variable pzz1 equal 8.26277574195586
variable tmp equal pxy
variable pxy1 equal ${tmp}
variable pxy1 equal -9.99885343459511e-12
variable tmp equal pxz
variable pxz1 equal ${tmp}
variable pxz1 equal -1.56800201587969e-11
variable tmp equal pyz
variable pyz1 equal ${tmp}
variable pyz1 equal -2.90875736279131e-11

# Compute elastic constant from pressure tensor

variable C1neg equal ${d1}
variable C1neg equal 480.714531356568
variable C2neg equal ${d2}
variable C2neg equal 82.627757425317
variable C3neg equal ${d3}
variable C3neg equal 82.6277574255397
variable C4neg equal ${d4}
variable C4neg equal -2.5451663283891e-10
variable C5neg equal ${d5}
variable C5neg equal -2.29467367876307e-10
variable C6neg equal ${d6}
variable C6neg equal 6.35763905429399e-11

# Reset box and simulation parameters

clear
box tilt large
read_restart restart.equil
Reading restart file ...
  restart file = 23 Jun 2022, LAMMPS = 23 Jun 2022
  restoring atom style atomic from restart
  triclinic box = (-4.608 -4.608 -4.608) to (4.608 4.608 4.608) with tilt (0 0 0)
  1 by 1 by 1 MPI processor grid
  pair style meam stores no restart info
  64 atoms
  read_restart CPU = 0.000 seconds
include potential.mod
# NOTE: This script can be modified for different pair styles
# See in.elastic for more info.

# Choose potential
pair_style	meam
pair_coeff * * library_ZrN.meam Zr N ZrN.meam Zr N
Reading MEAM library file library_ZrN.meam with DATE: 2015-02-12

# Setup neighbor style
neighbor 1.0 nsq
neigh_modify once no every 1 delay 0 check yes

# Setup minimization style
min_style	     cg
min_modify	     dmax ${dmax} line quadratic
min_modify	     dmax 0.01 line quadratic

# Setup output
thermo		1
thermo_style custom step temp pe press pxx pyy pzz pxy pxz pyz lx ly lz vol
thermo_modify norm no

# Positive deformation

variable delta equal ${up}*${len0}
variable delta equal 1e-05*${len0}
variable delta equal 1e-05*9.2160000424006
variable deltaxy equal ${up}*xy
variable deltaxy equal 1e-05*xy
variable deltaxz equal ${up}*xz
variable deltaxz equal 1e-05*xz
variable deltayz equal ${up}*yz
variable deltayz equal 1e-05*yz
if "${dir} == 1" then    "change_box all x delta 0 ${delta} xy delta ${deltaxy} xz delta ${deltaxz} remap units box"
change_box all x delta 0 ${delta} xy delta ${deltaxy} xz delta ${deltaxz} remap units box
change_box all x delta 0 9.2160000424006e-05 xy delta ${deltaxy} xz delta ${deltaxz} remap units box
change_box all x delta 0 9.2160000424006e-05 xy delta 0 xz delta ${deltaxz} remap units box
change_box all x delta 0 9.2160000424006e-05 xy delta 0 xz delta 0 remap units box
Changing box ...
  triclinic box = (-4.608 -4.608 -4.608) to (4.6080922 4.608 4.608) with tilt (0 0 0)
  triclinic box = (-4.608 -4.608 -4.608) to (4.6080922 4.608 4.608) with tilt (0 0 0)
  triclinic box = (-4.608 -4.608 -4.608) to (4.6080922 4.608 4.608) with tilt (0 0 0)
if "${dir} == 2" then    "change_box all y delta 0 ${delta} yz delta ${deltayz} remap units box"
if "${dir} == 3" then    "change_box all z delta 0 ${delta} remap units box"
if "${dir} == 4" then    "change_box all yz delta ${delta} remap units box"
if "${dir} == 5" then    "change_box all xz delta ${delta} remap units box"
if "${dir} == 6" then    "change_box all xy delta ${delta} remap units box"

# Relax atoms positions

minimize ${etol} ${ftol} ${maxiter} ${maxeval}
minimize 0 ${ftol} ${maxiter} ${maxeval}
minimize 0 1e-12 ${maxiter} ${maxeval}
minimize 0 1e-12 1000 ${maxeval}
minimize 0 1e-12 1000 1000
Neighbor list info ...
  update every 1 steps, delay 0 steps, check yes
  max neighbors/atom: 2000, page size: 100000
  master list distance cutoff = 6.26
  ghost atom cutoff = 6.26
  2 neighbor lists, perpetual/occasional/extra = 2 0 0
  (1) pair meam, perpetual
      attributes: full, newton on
      pair build: full/nsq
      stencil: none
      bin: none
  (2) pair meam, perpetual, half/full from (1)
      attributes: half, newton on
      pair build: halffull/newton
      stencil: none
      bin: none
Per MPI rank memory allocation (min/avg/max) = 9.918 | 9.918 | 9.918 Mbytes
   Step          Temp          PotEng         Press           Pxx            Pyy            Pzz            Pxy            Pxz            Pyz             Lx             Ly             Lz           Volume    
         9   0             -472.768       -21.530639     -48.067227     -8.2623448     -8.2623446     -6.3906394e-08  2.7216676e-08  7.2231182e-09  9.2160922      9.216          9.216          782.76563    
        10   0             -472.768       -21.53064      -48.067229     -8.2623458     -8.2623458     -2.4330814e-09 -5.8410316e-09 -3.722226e-09   9.2160922      9.216          9.216          782.76563    
        11   0             -472.768       -21.53064      -48.067229     -8.2623459     -8.2623459      1.0044102e-09 -6.3845947e-09  7.5898869e-10  9.2160922      9.216          9.216          782.76563    
        12   0             -472.768       -21.53064      -48.067229     -8.2623459     -8.2623459      9.8600358e-10 -1.337888e-09   7.5898869e-10  9.2160922      9.216          9.216          782.76563    
        13   0             -472.768       -21.53064      -48.067229     -8.2623459     -8.2623459      1.472529e-10  -5.7651327e-10  2.7269055e-10  9.2160922      9.216          9.216          782.76563    
        14   0             -472.768       -21.53064      -48.067229     -8.2623459     -8.2623459      9.9986535e-12 -7.7944049e-11  5.3629141e-11  9.2160922      9.216          9.216          782.76563    
        15   0             -472.768       -21.53064      -48.067229     -8.2623459     -8.2623459     -1.6361433e-11 -4.7948088e-11  4.0449098e-11  9.2160922      9.216          9.216          782.76563    
        16   0             -472.768       -21.53064      -48.067229     -8.2623459     -8.2623459      1.2043833e-11 -1.4089012e-11  1.181659e-11   9.2160922      9.216          9.216          782.76563    
        17   0             -472.768       -21.53064      -48.067229     -8.2623459     -8.2623459      7.0445058e-12 -1.3975391e-11 -2.999596e-11   9.2160922      9.216          9.216          782.76563    
        18   0             -472.768       -21.53064      -48.067229     -8.2623459     -8.2623459      5.453811e-12   9.8850324e-12  6.953609e-11   9.2160922      9.216          9.216          782.76563    
        19   0             -472.768       -21.53064      -48.067229     -8.2623459     -8.2623459     -8.6352007e-12 -4.4653077e-11  1.9542823e-11  9.2160922      9.216          9.216          782.76563    
        20   0             -472.768       -21.53064      -48.067229     -8.2623459     -8.2623459     -5.6583289e-11  2.4201286e-11  9.5441692e-11  9.2160922      9.216          9.216          782.76563    
        21   0             -472.768       -21.53064      -48.067229     -8.2623459     -8.2623459     -7.4989901e-12 -7.9534743e-13 -1.2271075e-11  9.2160922      9.216          9.216          782.76563    
        22   0             -472.768       -21.53064      -48.067229     -8.2623459     -8.2623459     -4.5448425e-12 -1.7270401e-11 -2.4996634e-11  9.2160922      9.216          9.216          782.76563    
        23   0             -472.768       -21.53064      -48.067229     -8.2623459     -8.2623459      1.4316254e-11  1.8861096e-11  6.8627121e-11  9.2160922      9.216          9.216          782.76563    
        24   0             -472.768       -21.53064      -48.067229     -8.2623459     -8.2623459      3.6813224e-11 -3.4086319e-13  4.0449098e-11  9.2160922      9.216          9.216          782.76563    
        25   0             -472.768       -21.53064      -48.067229     -8.2623459     -8.2623459      6.8172637e-13 -3.4881666e-11  7.9080259e-11  9.2160922      9.216          9.216          782.76563    
        26   0             -472.768       -21.53064      -48.067229     -8.2623459     -8.2623459      2.1588002e-11  1.9315581e-12 -3.7267708e-11  9.2160922      9.216          9.216          782.76563    
        27   0             -472.768       -21.53064      -48.067229     -8.2623459     -8.2623459     -2.2724212e-13 -3.8858403e-11 -4.2721519e-11  9.2160922      9.216          9.216          782.76563    
Loop time of 0.0506955 on 1 procs for 18 steps with 64 atoms

99.4% CPU use with 1 MPI tasks x no OpenMP threads

Minimization stats:
  Stopping criterion = force tolerance
  Energy initial, next-to-last, final = 
     -472.767999896167  -472.767999896524  -472.767999896524
  Force two-norm initial, final = 0.00010300453 6.2736712e-13
  Force max component initial, final = 1.9496377e-05 1.1501911e-13
  Final line search alpha, max atom move = 1 1.1501911e-13
  Iterations, force evaluations = 18 36

MPI task timing breakdown:
Section |  min time  |  avg time  |  max time  |%varavg| %total
---------------------------------------------------------------
Pair    | 0.050201   | 0.050201   | 0.050201   |   0.0 | 99.02
Neigh   | 0          | 0          | 0          |   0.0 |  0.00
Comm    | 0.00011742 | 0.00011742 | 0.00011742 |   0.0 |  0.23
Output  | 0.00025456 | 0.00025456 | 0.00025456 |   0.0 |  0.50
Modify  | 0          | 0          | 0          |   0.0 |  0.00
Other   |            | 0.000123   |            |       |  0.24

Nlocal:             64 ave          64 max          64 min
Histogram: 1 0 0 0 0 0 0 0 0 0
Nghost:            665 ave         665 max         665 min
Histogram: 1 0 0 0 0 0 0 0 0 0
Neighs:           2560 ave        2560 max        2560 min
Histogram: 1 0 0 0 0 0 0 0 0 0
FullNghs:         5120 ave        5120 max        5120 min
Histogram: 1 0 0 0 0 0 0 0 0 0

Total # of neighbors = 5120
Ave neighs/atom = 80
Neighbor list builds = 0
Dangerous builds = 0

# Obtain new stress tensor

variable tmp equal pe
variable e1 equal ${tmp}
variable e1 equal -472.767999896524
variable tmp equal press
variable p1 equal ${tmp}
variable p1 equal -21.5306402257292
variable tmp equal pxx
variable pxx1 equal ${tmp}
variable pxx1 equal -48.0672289100551
variable tmp equal pyy
variable pyy1 equal ${tmp}
variable pyy1 equal -8.26234588352434
variable tmp equal pzz
variable pzz1 equal ${tmp}
variable pzz1 equal -8.26234588360819
variable tmp equal pxy
variable pxy1 equal ${tmp}
variable pxy1 equal -2.2724212408014e-13
variable tmp equal pxz
variable pxz1 equal ${tmp}
variable pxz1 equal -3.8858403217704e-11
variable tmp equal pyz
variable pyz1 equal ${tmp}
variable pyz1 equal -4.27215193270664e-11

# Compute elastic constant from pressure tensor

variable C1pos equal ${d1}
variable C1pos equal 480.672289094915
variable C2pos equal ${d2}
variable C2pos equal 82.6234588294623
variable C3pos equal ${d3}
variable C3pos equal 82.6234588301008
variable C4pos equal ${d4}
variable C4pos equal 3.90856089830443e-10
variable C5pos equal ${d5}
variable C5pos equal 4.61251198465378e-10
variable C6pos equal ${d6}
variable C6pos equal -1.6129250364809e-10

# Combine positive and negative

variable C1${dir} equal 0.5*(${C1neg}+${C1pos})
variable C11 equal 0.5*(${C1neg}+${C1pos})
variable C11 equal 0.5*(480.714531356568+${C1pos})
variable C11 equal 0.5*(480.714531356568+480.672289094915)
variable C2${dir} equal 0.5*(${C2neg}+${C2pos})
variable C21 equal 0.5*(${C2neg}+${C2pos})
variable C21 equal 0.5*(82.627757425317+${C2pos})
variable C21 equal 0.5*(82.627757425317+82.6234588294623)
variable C3${dir} equal 0.5*(${C3neg}+${C3pos})
variable C31 equal 0.5*(${C3neg}+${C3pos})
variable C31 equal 0.5*(82.6277574255397+${C3pos})
variable C31 equal 0.5*(82.6277574255397+82.6234588301008)
variable C4${dir} equal 0.5*(${C4neg}+${C4pos})
variable C41 equal 0.5*(${C4neg}+${C4pos})
variable C41 equal 0.5*(-2.5451663283891e-10+${C4pos})
variable C41 equal 0.5*(-2.5451663283891e-10+3.90856089830443e-10)
variable C5${dir} equal 0.5*(${C5neg}+${C5pos})
variable C51 equal 0.5*(${C5neg}+${C5pos})
variable C51 equal 0.5*(-2.29467367876307e-10+${C5pos})
variable C51 equal 0.5*(-2.29467367876307e-10+4.61251198465378e-10)
variable C6${dir} equal 0.5*(${C6neg}+${C6pos})
variable C61 equal 0.5*(${C6neg}+${C6pos})
variable C61 equal 0.5*(6.35763905429399e-11+${C6pos})
variable C61 equal 0.5*(6.35763905429399e-11+-1.6129250364809e-10)

# Delete dir to make sure it is not reused

variable dir delete

# uyy Perturbation

variable dir equal 2
include displace.mod
# NOTE: This script should not need to be
# modified. See in.elastic for more info.
#
# Find which reference length to use

if "${dir} == 1" then    "variable len0 equal ${lx0}"
if "${dir} == 2" then    "variable len0 equal ${ly0}"
variable len0 equal ${ly0}
variable len0 equal 9.2160000424006
if "${dir} == 3" then    "variable len0 equal ${lz0}"
if "${dir} == 4" then    "variable len0 equal ${lz0}"
if "${dir} == 5" then    "variable len0 equal ${lz0}"
if "${dir} == 6" then    "variable len0 equal ${ly0}"

# Reset box and simulation parameters

clear
box tilt large
read_restart restart.equil
Reading restart file ...
  restart file = 23 Jun 2022, LAMMPS = 23 Jun 2022
  restoring atom style atomic from restart
  triclinic box = (-4.608 -4.608 -4.608) to (4.608 4.608 4.608) with tilt (0 0 0)
  1 by 1 by 1 MPI processor grid
  pair style meam stores no restart info
  64 atoms
  read_restart CPU = 0.000 seconds
include potential.mod
# NOTE: This script can be modified for different pair styles
# See in.elastic for more info.

# Choose potential
pair_style	meam
pair_coeff * * library_ZrN.meam Zr N ZrN.meam Zr N
Reading MEAM library file library_ZrN.meam with DATE: 2015-02-12

# Setup neighbor style
neighbor 1.0 nsq
neigh_modify once no every 1 delay 0 check yes

# Setup minimization style
min_style	     cg
min_modify	     dmax ${dmax} line quadratic
min_modify	     dmax 0.01 line quadratic

# Setup output
thermo		1
thermo_style custom step temp pe press pxx pyy pzz pxy pxz pyz lx ly lz vol
thermo_modify norm no

# Negative deformation

variable delta equal -${up}*${len0}
variable delta equal -1e-05*${len0}
variable delta equal -1e-05*9.2160000424006
variable deltaxy equal -${up}*xy
variable deltaxy equal -1e-05*xy
variable deltaxz equal -${up}*xz
variable deltaxz equal -1e-05*xz
variable deltayz equal -${up}*yz
variable deltayz equal -1e-05*yz
if "${dir} == 1" then    "change_box all x delta 0 ${delta} xy delta ${deltaxy} xz delta ${deltaxz} remap units box"
if "${dir} == 2" then    "change_box all y delta 0 ${delta} yz delta ${deltayz} remap units box"
change_box all y delta 0 ${delta} yz delta ${deltayz} remap units box
change_box all y delta 0 -9.2160000424006e-05 yz delta ${deltayz} remap units box
change_box all y delta 0 -9.2160000424006e-05 yz delta -0 remap units box
Changing box ...
  triclinic box = (-4.608 -4.608 -4.608) to (4.608 4.6079079 4.608) with tilt (0 0 0)
  triclinic box = (-4.608 -4.608 -4.608) to (4.608 4.6079079 4.608) with tilt (0 0 0)
if "${dir} == 3" then    "change_box all z delta 0 ${delta} remap units box"
if "${dir} == 4" then    "change_box all yz delta ${delta} remap units box"
if "${dir} == 5" then    "change_box all xz delta ${delta} remap units box"
if "${dir} == 6" then    "change_box all xy delta ${delta} remap units box"

# Relax atoms positions

minimize ${etol} ${ftol} ${maxiter} ${maxeval}
minimize 0 ${ftol} ${maxiter} ${maxeval}
minimize 0 1e-12 ${maxiter} ${maxeval}
minimize 0 1e-12 1000 ${maxeval}
minimize 0 1e-12 1000 1000
Neighbor list info ...
  update every 1 steps, delay 0 steps, check yes
  max neighbors/atom: 2000, page size: 100000
  master list distance cutoff = 6.26
  ghost atom cutoff = 6.26
  2 neighbor lists, perpetual/occasional/extra = 2 0 0
  (1) pair meam, perpetual
      attributes: full, newton on
      pair build: full/nsq
      stencil: none
      bin: none
  (2) pair meam, perpetual, half/full from (1)
      attributes: half, newton on
      pair build: halffull/newton
      stencil: none
      bin: none
Per MPI rank memory allocation (min/avg/max) = 9.918 | 9.918 | 9.918 Mbytes
   Step          Temp          PotEng         Press           Pxx            Pyy            Pzz            Pxy            Pxz            Pyz             Lx             Ly             Lz           Volume    
         9   0             -472.768        21.532336      8.2627772      48.071454      8.262777      -6.3916307e-08  2.7155863e-08  7.1596336e-09  9.216          9.2159079      9.216          782.74997    
        10   0             -472.768        21.532335      8.2627758      48.071453      8.2627758     -2.5188021e-09 -5.8908018e-09 -3.7472976e-09  9.216          9.2159079      9.216          782.74997    
        11   0             -472.768        21.532335      8.2627758      48.071453      8.2627757      9.9806737e-10 -6.4186958e-09  7.4218762e-10  9.216          9.2159079      9.216          782.74997    
        12   0             -472.768        21.532335      8.2627757      48.071453      8.2627757      9.621624e-10  -1.3117814e-09  7.3400674e-10  9.216          9.2159079      9.216          782.74997    
        13   0             -472.768        21.532335      8.2627757      48.071453      8.2627757      1.465741e-10  -5.4845984e-10  2.390635e-10   9.216          9.2159079      9.216          782.74997    
        14   0             -472.768        21.532335      8.2627757      48.071453      8.2627757      1.499828e-11  -9.8738678e-11  9.4080121e-11  9.216          9.2159079      9.216          782.74997    
        15   0             -472.768        21.532335      8.2627757      48.071453      8.2627757      1.36348e-11   -6.3629067e-11  4.8630787e-11  9.216          9.2159079      9.216          782.74997    
        16   0             -472.768        21.532335      8.2627757      48.071453      8.2627757      6.1356601e-12 -2.7042354e-11 -7.8172854e-11  9.216          9.2159079      9.216          782.74997    
        17   0             -472.768        21.532335      8.2627757      48.071453      8.2627757     -2.2724667e-11  1.02261e-11    4.226788e-11   9.216          9.2159079      9.216          782.74997    
        18   0             -472.768        21.532335      8.2627757      48.071453      8.2627757     -4.499484e-11  -2.317916e-11  -2.1361187e-11  9.216          9.2159079      9.216          782.74997    
        19   0             -472.768        21.532335      8.2627757      48.071453      8.2627757     -2.0679447e-11 -3.5223234e-12  4.9994267e-12  9.216          9.2159079      9.216          782.74997    
        20   0             -472.768        21.532335      8.2627757      48.071453      8.2627757     -2.454264e-11   3.5223234e-12  5.4539201e-12  9.216          9.2159079      9.216          782.74997    
        21   0             -472.768        21.532335      8.2627757      48.071453      8.2627757     -3.340526e-11  -1.6816254e-11  2.2270174e-11  9.216          9.2159079      9.216          782.74997    
        22   0             -472.768        21.532335      8.2627757      48.071453      8.2627757     -2.522438e-11  -1.4430163e-11  1.772524e-11   9.216          9.2159079      9.216          782.74997    
        23   0             -472.768        21.532335      8.2627757      48.071453      8.2627757      5.6811667e-12  1.397567e-11  -1.6816254e-11  9.216          9.2159079      9.216          782.74997    
        24   0             -472.768        21.532335      8.2627757      48.071453      8.2627757      7.4991401e-12  2.999656e-11  -4.5449334e-13  9.216          9.2159079      9.216          782.74997    
        25   0             -472.768        21.532335      8.2627757      48.071453      8.2627757     -1.1362333e-12  2.72696e-12   -3.545048e-11   9.216          9.2159079      9.216          782.74997    
        26   0             -472.768        21.532335      8.2627757      48.071453      8.2627757      0              1.295306e-11  -4.5449334e-12  9.216          9.2159079      9.216          782.74997    
        27   0             -472.768        21.532335      8.2627757      48.071453      8.2627757      6.8174001e-12 -1.5907267e-12 -6.7719507e-11  9.216          9.2159079      9.216          782.74997    
Loop time of 0.0514503 on 1 procs for 18 steps with 64 atoms

99.0% CPU use with 1 MPI tasks x no OpenMP threads

Minimization stats:
  Stopping criterion = force tolerance
  Energy initial, next-to-last, final = 
     -472.767999896161  -472.767999896518   -472.76799989652
  Force two-norm initial, final = 0.00010300954 5.9901979e-13
  Force max component initial, final = 1.949639e-05 1.3272716e-13
  Final line search alpha, max atom move = 1 1.3272716e-13
  Iterations, force evaluations = 18 36

MPI task timing breakdown:
Section |  min time  |  avg time  |  max time  |%varavg| %total
---------------------------------------------------------------
Pair    | 0.050966   | 0.050966   | 0.050966   |   0.0 | 99.06
Neigh   | 0          | 0          | 0          |   0.0 |  0.00
Comm    | 0.00011846 | 0.00011846 | 0.00011846 |   0.0 |  0.23
Output  | 0.00023199 | 0.00023199 | 0.00023199 |   0.0 |  0.45
Modify  | 0          | 0          | 0          |   0.0 |  0.00
Other   |            | 0.0001335  |            |       |  0.26

Nlocal:             64 ave          64 max          64 min
Histogram: 1 0 0 0 0 0 0 0 0 0
Nghost:            665 ave         665 max         665 min
Histogram: 1 0 0 0 0 0 0 0 0 0
Neighs:           2560 ave        2560 max        2560 min
Histogram: 1 0 0 0 0 0 0 0 0 0
FullNghs:         5120 ave        5120 max        5120 min
Histogram: 1 0 0 0 0 0 0 0 0 0

Total # of neighbors = 5120
Ave neighs/atom = 80
Neighbor list builds = 0
Dangerous builds = 0

# Obtain new stress tensor

variable tmp equal pxx
variable pxx1 equal ${tmp}
variable pxx1 equal 8.26277574196859
variable tmp equal pyy
variable pyy1 equal ${tmp}
variable pyy1 equal 48.0714531351043
variable tmp equal pzz
variable pzz1 equal ${tmp}
variable pzz1 equal 8.26277574195359
variable tmp equal pxy
variable pxy1 equal ${tmp}
variable pxy1 equal 6.81740006904212e-12
variable tmp equal pxz
variable pxz1 equal ${tmp}
variable pxz1 equal -1.5907266827765e-12
variable tmp equal pyz
variable pyz1 equal ${tmp}
variable pyz1 equal -6.77195073524851e-11

# Compute elastic constant from pressure tensor

variable C1neg equal ${d1}
variable C1neg equal 82.6277574253215
variable C2neg equal ${d2}
variable C2neg equal 480.714531356824
variable C3neg equal ${d3}
variable C3neg equal 82.6277574255169
variable C4neg equal ${d4}
variable C4neg equal -6.4083597008463e-10
variable C5neg equal ${d5}
variable C5neg equal -8.85744331161035e-11
variable C6neg equal ${d6}
variable C6neg equal 2.31738925579312e-10

# Reset box and simulation parameters

clear
box tilt large
read_restart restart.equil
Reading restart file ...
  restart file = 23 Jun 2022, LAMMPS = 23 Jun 2022
  restoring atom style atomic from restart
  triclinic box = (-4.608 -4.608 -4.608) to (4.608 4.608 4.608) with tilt (0 0 0)
  1 by 1 by 1 MPI processor grid
  pair style meam stores no restart info
  64 atoms
  read_restart CPU = 0.000 seconds
include potential.mod
# NOTE: This script can be modified for different pair styles
# See in.elastic for more info.

# Choose potential
pair_style	meam
pair_coeff * * library_ZrN.meam Zr N ZrN.meam Zr N
Reading MEAM library file library_ZrN.meam with DATE: 2015-02-12

# Setup neighbor style
neighbor 1.0 nsq
neigh_modify once no every 1 delay 0 check yes

# Setup minimization style
min_style	     cg
min_modify	     dmax ${dmax} line quadratic
min_modify	     dmax 0.01 line quadratic

# Setup output
thermo		1
thermo_style custom step temp pe press pxx pyy pzz pxy pxz pyz lx ly lz vol
thermo_modify norm no

# Positive deformation

variable delta equal ${up}*${len0}
variable delta equal 1e-05*${len0}
variable delta equal 1e-05*9.2160000424006
variable deltaxy equal ${up}*xy
variable deltaxy equal 1e-05*xy
variable deltaxz equal ${up}*xz
variable deltaxz equal 1e-05*xz
variable deltayz equal ${up}*yz
variable deltayz equal 1e-05*yz
if "${dir} == 1" then    "change_box all x delta 0 ${delta} xy delta ${deltaxy} xz delta ${deltaxz} remap units box"
if "${dir} == 2" then    "change_box all y delta 0 ${delta} yz delta ${deltayz} remap units box"
change_box all y delta 0 ${delta} yz delta ${deltayz} remap units box
change_box all y delta 0 9.2160000424006e-05 yz delta ${deltayz} remap units box
change_box all y delta 0 9.2160000424006e-05 yz delta 0 remap units box
Changing box ...
  triclinic box = (-4.608 -4.608 -4.608) to (4.608 4.6080922 4.608) with tilt (0 0 0)
  triclinic box = (-4.608 -4.608 -4.608) to (4.608 4.6080922 4.608) with tilt (0 0 0)
if "${dir} == 3" then    "change_box all z delta 0 ${delta} remap units box"
if "${dir} == 4" then    "change_box all yz delta ${delta} remap units box"
if "${dir} == 5" then    "change_box all xz delta ${delta} remap units box"
if "${dir} == 6" then    "change_box all xy delta ${delta} remap units box"

# Relax atoms positions

minimize ${etol} ${ftol} ${maxiter} ${maxeval}
minimize 0 ${ftol} ${maxiter} ${maxeval}
minimize 0 1e-12 ${maxiter} ${maxeval}
minimize 0 1e-12 1000 ${maxeval}
minimize 0 1e-12 1000 1000
Neighbor list info ...
  update every 1 steps, delay 0 steps, check yes
  max neighbors/atom: 2000, page size: 100000
  master list distance cutoff = 6.26
  ghost atom cutoff = 6.26
  2 neighbor lists, perpetual/occasional/extra = 2 0 0
  (1) pair meam, perpetual
      attributes: full, newton on
      pair build: full/nsq
      stencil: none
      bin: none
  (2) pair meam, perpetual, half/full from (1)
      attributes: half, newton on
      pair build: halffull/newton
      stencil: none
      bin: none
Per MPI rank memory allocation (min/avg/max) = 9.918 | 9.918 | 9.918 Mbytes
   Step          Temp          PotEng         Press           Pxx            Pyy            Pzz            Pxy            Pxz            Pyz             Lx             Ly             Lz           Volume    
         9   0             -472.768       -21.530639     -8.2623444     -48.067228     -8.2623446     -6.3963431e-08  2.7134528e-08  7.2181188e-09  9.216          9.2160922      9.216          782.76563    
        10   0             -472.768       -21.53064      -8.2623458     -48.067229     -8.2623458     -2.4694402e-09 -5.8361459e-09 -3.778582e-09   9.216          9.2160922      9.216          782.76563    
        11   0             -472.768       -21.53064      -8.2623459     -48.067229     -8.2623459      9.8759427e-10 -6.4578803e-09  6.5445732e-10  9.216          9.2160922      9.216          782.76563    
        12   0             -472.768       -21.53064      -8.2623459     -48.067229     -8.2623459      1.0459955e-09 -1.2934622e-09  6.8263534e-10  9.216          9.2160922      9.216          782.76563    
        13   0             -472.768       -21.53064      -8.2623459     -48.067229     -8.2623459      1.1657521e-10 -5.3413261e-10  3.1132171e-10  9.216          9.2160922      9.216          782.76563    
        14   0             -472.768       -21.53064      -8.2623459     -48.067229     -8.2623459     -5.9082952e-12 -9.4532724e-11  7.4535417e-11  9.216          9.2160922      9.216          782.76563    
        15   0             -472.768       -21.53064      -8.2623459     -48.067229     -8.2623459     -3.4086319e-12 -8.1466301e-11  4.7266362e-11  9.216          9.2160922      9.216          782.76563    
        16   0             -472.768       -21.53064      -8.2623459     -48.067229     -8.2623459      2.5905602e-11 -4.2380656e-11  5.453811e-12   9.216          9.2160922      9.216          782.76563    
        17   0             -472.768       -21.53064      -8.2623459     -48.067229     -8.2623459      2.1815244e-11 -1.5906949e-12  8.0443712e-11  9.216          9.2160922      9.216          782.76563    
        18   0             -472.768       -21.53064      -8.2623459     -48.067229     -8.2623459      1.6361433e-11 -2.999596e-11  -4.0903582e-12  9.216          9.2160922      9.216          782.76563    
        19   0             -472.768       -21.53064      -8.2623459     -48.067229     -8.2623459      1.499798e-11   4.8743436e-11 -2.4996634e-11  9.216          9.2160922      9.216          782.76563    
        20   0             -472.768       -21.53064      -8.2623459     -48.067229     -8.2623459     -4.3176004e-12 -7.271748e-12   1.9088338e-11  9.216          9.2160922      9.216          782.76563    
        21   0             -472.768       -21.53064      -8.2623459     -48.067229     -8.2623459      3.8631161e-12 -2.1247139e-11  3.0904929e-11  9.216          9.2160922      9.216          782.76563    
        22   0             -472.768       -21.53064      -8.2623459     -48.067229     -8.2623459     -4.0903582e-12  1.3634527e-12 -7.271748e-12   9.216          9.2160922      9.216          782.76563    
        23   0             -472.768       -21.53064      -8.2623459     -48.067229     -8.2623459      1.817937e-11  -6.8172637e-13 -3.1813897e-11  9.216          9.2160922      9.216          782.76563    
        24   0             -472.768       -21.53064      -8.2623459     -48.067229     -8.2623459      1.5906949e-12 -8.0670954e-12 -1.4543496e-11  9.216          9.2160922      9.216          782.76563    
        25   0             -472.768       -21.53064      -8.2623459     -48.067229     -8.2623459     -5.6810531e-12  4.4198593e-11 -6.317331e-11   9.216          9.2160922      9.216          782.76563    
        26   0             -472.768       -21.53064      -8.2623459     -48.067229     -8.2623459     -2.2951455e-11 -5.6810531e-13 -4.2721519e-11  9.216          9.2160922      9.216          782.76563    
        27   0             -472.768       -21.53064      -8.2623459     -48.067229     -8.2623459      6.8172637e-12  2.6132844e-12  7.7262322e-12  9.216          9.2160922      9.216          782.76563    
Loop time of 0.0504832 on 1 procs for 18 steps with 64 atoms

98.5% CPU use with 1 MPI tasks x no OpenMP threads

Minimization stats:
  Stopping criterion = force tolerance
  Energy initial, next-to-last, final = 
     -472.767999896167  -472.767999896524  -472.767999896524
  Force two-norm initial, final = 0.00010300517 5.9824372e-13
  Force max component initial, final = 1.9496446e-05 1.438849e-13
  Final line search alpha, max atom move = 1 1.438849e-13
  Iterations, force evaluations = 18 36

MPI task timing breakdown:
Section |  min time  |  avg time  |  max time  |%varavg| %total
---------------------------------------------------------------
Pair    | 0.049916   | 0.049916   | 0.049916   |   0.0 | 98.88
Neigh   | 0          | 0          | 0          |   0.0 |  0.00
Comm    | 0.00011843 | 0.00011843 | 0.00011843 |   0.0 |  0.23
Output  | 0.00026148 | 0.00026148 | 0.00026148 |   0.0 |  0.52
Modify  | 0          | 0          | 0          |   0.0 |  0.00
Other   |            | 0.0001875  |            |       |  0.37

Nlocal:             64 ave          64 max          64 min
Histogram: 1 0 0 0 0 0 0 0 0 0
Nghost:            665 ave         665 max         665 min
Histogram: 1 0 0 0 0 0 0 0 0 0
Neighs:           2560 ave        2560 max        2560 min
Histogram: 1 0 0 0 0 0 0 0 0 0
FullNghs:         5120 ave        5120 max        5120 min
Histogram: 1 0 0 0 0 0 0 0 0 0

Total # of neighbors = 5120
Ave neighs/atom = 80
Neighbor list builds = 0
Dangerous builds = 0

# Obtain new stress tensor

variable tmp equal pe
variable e1 equal ${tmp}
variable e1 equal -472.767999896524
variable tmp equal press
variable p1 equal ${tmp}
variable p1 equal -21.5306402257881
variable tmp equal pxx
variable pxx1 equal ${tmp}
variable pxx1 equal -8.26234588361501
variable tmp equal pyy
variable pyy1 equal ${tmp}
variable pyy1 equal -48.0672289101268
variable tmp equal pzz
variable pzz1 equal ${tmp}
variable pzz1 equal -8.26234588362251
variable tmp equal pxy
variable pxy1 equal ${tmp}
variable pxy1 equal 6.81726372240421e-12
variable tmp equal pxz
variable pxz1 equal ${tmp}
variable pxz1 equal 2.61328442692161e-12
variable tmp equal pyz
variable pyz1 equal ${tmp}
variable pyz1 equal 7.72623221872477e-12

# Compute elastic constant from pressure tensor

variable C1pos equal ${d1}
variable C1pos equal 82.6234588305145
variable C2pos equal ${d2}
variable C2pos equal 480.672289095487
variable C3pos equal ${d3}
variable C3pos equal 82.623458830244
variable C4pos equal ${d4}
variable C4pos equal -1.13621425627469e-10
variable C5pos equal ${d5}
variable C5pos equal 4.65343220191224e-11
variable C6pos equal ${d6}
variable C6pos equal -2.31737562112933e-10

# Combine positive and negative

variable C1${dir} equal 0.5*(${C1neg}+${C1pos})
variable C12 equal 0.5*(${C1neg}+${C1pos})
variable C12 equal 0.5*(82.6277574253215+${C1pos})
variable C12 equal 0.5*(82.6277574253215+82.6234588305145)
variable C2${dir} equal 0.5*(${C2neg}+${C2pos})
variable C22 equal 0.5*(${C2neg}+${C2pos})
variable C22 equal 0.5*(480.714531356824+${C2pos})
variable C22 equal 0.5*(480.714531356824+480.672289095487)
variable C3${dir} equal 0.5*(${C3neg}+${C3pos})
variable C32 equal 0.5*(${C3neg}+${C3pos})
variable C32 equal 0.5*(82.6277574255169+${C3pos})
variable C32 equal 0.5*(82.6277574255169+82.623458830244)
variable C4${dir} equal 0.5*(${C4neg}+${C4pos})
variable C42 equal 0.5*(${C4neg}+${C4pos})
variable C42 equal 0.5*(-6.4083597008463e-10+${C4pos})
variable C42 equal 0.5*(-6.4083597008463e-10+-1.13621425627469e-10)
variable C5${dir} equal 0.5*(${C5neg}+${C5pos})
variable C52 equal 0.5*(${C5neg}+${C5pos})
variable C52 equal 0.5*(-8.85744331161035e-11+${C5pos})
variable C52 equal 0.5*(-8.85744331161035e-11+4.65343220191224e-11)
variable C6${dir} equal 0.5*(${C6neg}+${C6pos})
variable C62 equal 0.5*(${C6neg}+${C6pos})
variable C62 equal 0.5*(2.31738925579312e-10+${C6pos})
variable C62 equal 0.5*(2.31738925579312e-10+-2.31737562112933e-10)

# Delete dir to make sure it is not reused

variable dir delete

# uzz Perturbation

variable dir equal 3
include displace.mod
# NOTE: This script should not need to be
# modified. See in.elastic for more info.
#
# Find which reference length to use

if "${dir} == 1" then    "variable len0 equal ${lx0}"
if "${dir} == 2" then    "variable len0 equal ${ly0}"
if "${dir} == 3" then    "variable len0 equal ${lz0}"
variable len0 equal ${lz0}
variable len0 equal 9.2160000424006
if "${dir} == 4" then    "variable len0 equal ${lz0}"
if "${dir} == 5" then    "variable len0 equal ${lz0}"
if "${dir} == 6" then    "variable len0 equal ${ly0}"

# Reset box and simulation parameters

clear
box tilt large
read_restart restart.equil
Reading restart file ...
  restart file = 23 Jun 2022, LAMMPS = 23 Jun 2022
  restoring atom style atomic from restart
  triclinic box = (-4.608 -4.608 -4.608) to (4.608 4.608 4.608) with tilt (0 0 0)
  1 by 1 by 1 MPI processor grid
  pair style meam stores no restart info
  64 atoms
  read_restart CPU = 0.000 seconds
include potential.mod
# NOTE: This script can be modified for different pair styles
# See in.elastic for more info.

# Choose potential
pair_style	meam
pair_coeff * * library_ZrN.meam Zr N ZrN.meam Zr N
Reading MEAM library file library_ZrN.meam with DATE: 2015-02-12

# Setup neighbor style
neighbor 1.0 nsq
neigh_modify once no every 1 delay 0 check yes

# Setup minimization style
min_style	     cg
min_modify	     dmax ${dmax} line quadratic
min_modify	     dmax 0.01 line quadratic

# Setup output
thermo		1
thermo_style custom step temp pe press pxx pyy pzz pxy pxz pyz lx ly lz vol
thermo_modify norm no

# Negative deformation

variable delta equal -${up}*${len0}
variable delta equal -1e-05*${len0}
variable delta equal -1e-05*9.2160000424006
variable deltaxy equal -${up}*xy
variable deltaxy equal -1e-05*xy
variable deltaxz equal -${up}*xz
variable deltaxz equal -1e-05*xz
variable deltayz equal -${up}*yz
variable deltayz equal -1e-05*yz
if "${dir} == 1" then    "change_box all x delta 0 ${delta} xy delta ${deltaxy} xz delta ${deltaxz} remap units box"
if "${dir} == 2" then    "change_box all y delta 0 ${delta} yz delta ${deltayz} remap units box"
if "${dir} == 3" then    "change_box all z delta 0 ${delta} remap units box"
change_box all z delta 0 ${delta} remap units box
change_box all z delta 0 -9.2160000424006e-05 remap units box
Changing box ...
  triclinic box = (-4.608 -4.608 -4.608) to (4.608 4.608 4.6079079) with tilt (0 0 0)
if "${dir} == 4" then    "change_box all yz delta ${delta} remap units box"
if "${dir} == 5" then    "change_box all xz delta ${delta} remap units box"
if "${dir} == 6" then    "change_box all xy delta ${delta} remap units box"

# Relax atoms positions

minimize ${etol} ${ftol} ${maxiter} ${maxeval}
minimize 0 ${ftol} ${maxiter} ${maxeval}
minimize 0 1e-12 ${maxiter} ${maxeval}
minimize 0 1e-12 1000 ${maxeval}
minimize 0 1e-12 1000 1000
Neighbor list info ...
  update every 1 steps, delay 0 steps, check yes
  max neighbors/atom: 2000, page size: 100000
  master list distance cutoff = 6.26
  ghost atom cutoff = 6.26
  2 neighbor lists, perpetual/occasional/extra = 2 0 0
  (1) pair meam, perpetual
      attributes: full, newton on
      pair build: full/nsq
      stencil: none
      bin: none
  (2) pair meam, perpetual, half/full from (1)
      attributes: half, newton on
      pair build: halffull/newton
      stencil: none
      bin: none
Per MPI rank memory allocation (min/avg/max) = 9.918 | 9.918 | 9.918 Mbytes
   Step          Temp          PotEng         Press           Pxx            Pyy            Pzz            Pxy            Pxz            Pyz             Lx             Ly             Lz           Volume    
         9   0             -472.768        21.532336      8.2627772      8.2627768      48.071454     -6.4017432e-08  2.7176088e-08  7.2232626e-09  9.216          9.216          9.2159079      782.74997    
        10   0             -472.768        21.532335      8.2627758      8.2627758      48.071453     -2.4472194e-09 -5.8495565e-09 -3.720937e-09   9.216          9.216          9.2159079      782.74997    
        11   0             -472.768        21.532335      8.2627758      8.2627758      48.071453      9.9534041e-10 -6.472326e-09   8.1445206e-10  9.216          9.216          9.2159079      782.74997    
        12   0             -472.768        21.532335      8.2627757      8.2627757      48.071453      9.8761402e-10 -1.2722405e-09  6.5628838e-10  9.216          9.216          9.2159079      782.74997    
        13   0             -472.768        21.532335      8.2627757      8.2627757      48.071453      1.0362448e-10 -5.5130042e-10  3.2587172e-10  9.216          9.216          9.2159079      782.74997    
        14   0             -472.768        21.532335      8.2627757      8.2627757      48.071453     -1.1362333e-11 -7.4309661e-11  1.0135201e-10  9.216          9.216          9.2159079      782.74997    
        15   0             -472.768        21.532335      8.2627757      8.2627757      48.071453      3.06783e-11   -5.1471371e-11  2.6360614e-11  9.216          9.216          9.2159079      782.74997    
        16   0             -472.768        21.532335      8.2627757      8.2627757      48.071453     -1.158958e-11  -2.147481e-11   3.3632507e-11  9.216          9.216          9.2159079      782.74997    
        17   0             -472.768        21.532335      8.2627757      8.2627757      48.071453      1.3407553e-11  2.8405834e-12  3.6359467e-12  9.216          9.216          9.2159079      782.74997    
        18   0             -472.768        21.532335      8.2627757      8.2627757      48.071453      1.36348e-11   -1.0339723e-11 -1.2725813e-11  9.216          9.216          9.2159079      782.74997    
        19   0             -472.768        21.532335      8.2627757      8.2627757      48.071453      8.6353734e-12 -2.6474237e-11 -1.8179734e-12  9.216          9.216          9.2159079      782.74997    
        20   0             -472.768        21.532335      8.2627757      8.2627757      48.071453      3.0905547e-11 -2.04522e-12    2.6815107e-11  9.216          9.216          9.2159079      782.74997    
        21   0             -472.768        21.532335      8.2627757      8.2627757      48.071453     -1.158958e-11  -2.04522e-12   -8.1808801e-12  9.216          9.216          9.2159079      782.74997    
        22   0             -472.768        21.532335      8.2627757      8.2627757      48.071453     -2.2951914e-11  6.9310234e-12 -2.3633654e-11  9.216          9.216          9.2159079      782.74997    
        23   0             -472.768        21.532335      8.2627757      8.2627757      48.071453     -4.09044e-11    2.04522e-11    2.9087574e-11  9.216          9.216          9.2159079      782.74997    
        24   0             -472.768        21.532335      8.2627757      8.2627757      48.071453     -4.5903827e-11  5.9084134e-12 -1.36348e-12    9.216          9.216          9.2159079      782.74997    
        25   0             -472.768        21.532335      8.2627757      8.2627757      48.071453     -2.317916e-11   2.6701484e-11  3.5904974e-11  9.216          9.216          9.2159079      782.74997    
        26   0             -472.768        21.532335      8.2627757      8.2627757      48.071453     -7.4991401e-12 -2.283829e-11  -1.0453347e-11  9.216          9.216          9.2159079      782.74997    
        27   0             -472.768        21.532335      8.2627757      8.2627757      48.071453      3.5677727e-11 -1.70435e-12   -1.9997707e-11  9.216          9.216          9.2159079      782.74997    
Loop time of 0.0515885 on 1 procs for 18 steps with 64 atoms

98.8% CPU use with 1 MPI tasks x no OpenMP threads

Minimization stats:
  Stopping criterion = force tolerance
  Energy initial, next-to-last, final = 
     -472.767999896161  -472.767999896518   -472.76799989652
  Force two-norm initial, final = 0.00010300964 5.8446192e-13
  Force max component initial, final = 1.9498099e-05 1.2817525e-13
  Final line search alpha, max atom move = 1 1.2817525e-13
  Iterations, force evaluations = 18 36

MPI task timing breakdown:
Section |  min time  |  avg time  |  max time  |%varavg| %total
---------------------------------------------------------------
Pair    | 0.05107    | 0.05107    | 0.05107    |   0.0 | 98.99
Neigh   | 0          | 0          | 0          |   0.0 |  0.00
Comm    | 0.00012144 | 0.00012144 | 0.00012144 |   0.0 |  0.24
Output  | 0.00027122 | 0.00027122 | 0.00027122 |   0.0 |  0.53
Modify  | 0          | 0          | 0          |   0.0 |  0.00
Other   |            | 0.0001261  |            |       |  0.24

Nlocal:             64 ave          64 max          64 min
Histogram: 1 0 0 0 0 0 0 0 0 0
Nghost:            665 ave         665 max         665 min
Histogram: 1 0 0 0 0 0 0 0 0 0
Neighs:           2560 ave        2560 max        2560 min
Histogram: 1 0 0 0 0 0 0 0 0 0
FullNghs:         5120 ave        5120 max        5120 min
Histogram: 1 0 0 0 0 0 0 0 0 0

Total # of neighbors = 5120
Ave neighs/atom = 80
Neighbor list builds = 0
Dangerous builds = 0

# Obtain new stress tensor

variable tmp equal pxx
variable pxx1 equal ${tmp}
variable pxx1 equal 8.26277574194245
variable tmp equal pyy
variable pyy1 equal ${tmp}
variable pyy1 equal 8.26277574193723
variable tmp equal pzz
variable pzz1 equal ${tmp}
variable pzz1 equal 48.0714531350586
variable tmp equal pxy
variable pxy1 equal ${tmp}
variable pxy1 equal 3.56777270279871e-11
variable tmp equal pxz
variable pxz1 equal ${tmp}
variable pxz1 equal -1.70435001726053e-12
variable tmp equal pyz
variable pyz1 equal ${tmp}
variable pyz1 equal -1.99977068691902e-11

# Compute elastic constant from pressure tensor

variable C1neg equal ${d1}
variable C1neg equal 82.6277574250602
variable C2neg equal ${d2}
variable C2neg equal 82.6277574251534
variable C3neg equal ${d3}
variable C3neg equal 480.714531356567
variable C4neg equal ${d4}
variable C4neg equal -1.63617965251681e-10
variable C5neg equal ${d5}
variable C5neg equal -8.97106664609438e-11
variable C6neg equal ${d6}
variable C6neg equal 5.20342195168762e-10

# Reset box and simulation parameters

clear
box tilt large
read_restart restart.equil
Reading restart file ...
  restart file = 23 Jun 2022, LAMMPS = 23 Jun 2022
  restoring atom style atomic from restart
  triclinic box = (-4.608 -4.608 -4.608) to (4.608 4.608 4.608) with tilt (0 0 0)
  1 by 1 by 1 MPI processor grid
  pair style meam stores no restart info
  64 atoms
  read_restart CPU = 0.000 seconds
include potential.mod
# NOTE: This script can be modified for different pair styles
# See in.elastic for more info.

# Choose potential
pair_style	meam
pair_coeff * * library_ZrN.meam Zr N ZrN.meam Zr N
Reading MEAM library file library_ZrN.meam with DATE: 2015-02-12

# Setup neighbor style
neighbor 1.0 nsq
neigh_modify once no every 1 delay 0 check yes

# Setup minimization style
min_style	     cg
min_modify	     dmax ${dmax} line quadratic
min_modify	     dmax 0.01 line quadratic

# Setup output
thermo		1
thermo_style custom step temp pe press pxx pyy pzz pxy pxz pyz lx ly lz vol
thermo_modify norm no

# Positive deformation

variable delta equal ${up}*${len0}
variable delta equal 1e-05*${len0}
variable delta equal 1e-05*9.2160000424006
variable deltaxy equal ${up}*xy
variable deltaxy equal 1e-05*xy
variable deltaxz equal ${up}*xz
variable deltaxz equal 1e-05*xz
variable deltayz equal ${up}*yz
variable deltayz equal 1e-05*yz
if "${dir} == 1" then    "change_box all x delta 0 ${delta} xy delta ${deltaxy} xz delta ${deltaxz} remap units box"
if "${dir} == 2" then    "change_box all y delta 0 ${delta} yz delta ${deltayz} remap units box"
if "${dir} == 3" then    "change_box all z delta 0 ${delta} remap units box"
change_box all z delta 0 ${delta} remap units box
change_box all z delta 0 9.2160000424006e-05 remap units box
Changing box ...
  triclinic box = (-4.608 -4.608 -4.608) to (4.608 4.608 4.6080922) with tilt (0 0 0)
if "${dir} == 4" then    "change_box all yz delta ${delta} remap units box"
if "${dir} == 5" then    "change_box all xz delta ${delta} remap units box"
if "${dir} == 6" then    "change_box all xy delta ${delta} remap units box"

# Relax atoms positions

minimize ${etol} ${ftol} ${maxiter} ${maxeval}
minimize 0 ${ftol} ${maxiter} ${maxeval}
minimize 0 1e-12 ${maxiter} ${maxeval}
minimize 0 1e-12 1000 ${maxeval}
minimize 0 1e-12 1000 1000
Neighbor list info ...
  update every 1 steps, delay 0 steps, check yes
  max neighbors/atom: 2000, page size: 100000
  master list distance cutoff = 6.26
  ghost atom cutoff = 6.26
  2 neighbor lists, perpetual/occasional/extra = 2 0 0
  (1) pair meam, perpetual
      attributes: full, newton on
      pair build: full/nsq
      stencil: none
      bin: none
  (2) pair meam, perpetual, half/full from (1)
      attributes: half, newton on
      pair build: halffull/newton
      stencil: none
      bin: none
Per MPI rank memory allocation (min/avg/max) = 9.918 | 9.918 | 9.918 Mbytes
   Step          Temp          PotEng         Press           Pxx            Pyy            Pzz            Pxy            Pxz            Pyz             Lx             Ly             Lz           Volume    
         9   0             -472.768       -21.530639     -8.2623444     -8.2623448     -48.067228     -6.3983201e-08  2.7146799e-08  7.1363117e-09  9.216          9.216          9.2160922      782.76563    
        10   0             -472.768       -21.53064      -8.2623458     -8.2623458     -48.067229     -2.4296728e-09 -5.8317146e-09 -3.7176811e-09  9.216          9.216          9.2160922      782.76563    
        11   0             -472.768       -21.53064      -8.2623459     -8.2623459     -48.067229      9.9463878e-10 -6.4493587e-09  7.762591e-10   9.216          9.216          9.2160922      782.76563    
        12   0             -472.768       -21.53064      -8.2623459     -8.2623459     -48.067229      9.7191456e-10 -1.2696017e-09  6.8218086e-10  9.216          9.216          9.2160922      782.76563    
        13   0             -472.768       -21.53064      -8.2623459     -8.2623459     -48.067229      1.0771277e-10 -5.4004091e-10  3.8858403e-10  9.216          9.216          9.2160922      782.76563    
        14   0             -472.768       -21.53064      -8.2623459     -8.2623459     -48.067229     -2.8178023e-11 -8.6465628e-11  4.5902909e-11  9.216          9.216          9.2160922      782.76563    
        15   0             -472.768       -21.53064      -8.2623459     -8.2623459     -48.067229      4.5448425e-12 -5.4651731e-11  1.1180313e-10  9.216          9.216          9.2160922      782.76563    
        16   0             -472.768       -21.53064      -8.2623459     -8.2623459     -48.067229      4.5675667e-11 -2.9768718e-11 -2.5451118e-11  9.216          9.216          9.2160922      782.76563    
        17   0             -472.768       -21.53064      -8.2623459     -8.2623459     -48.067229      5.9082952e-12  8.5215797e-12 -2.3633181e-11  9.216          9.216          9.2160922      782.76563    
        18   0             -472.768       -21.53064      -8.2623459     -8.2623459     -48.067229     -5.9082952e-12  2.1815244e-11  2.2724212e-11  9.216          9.216          9.2160922      782.76563    
        19   0             -472.768       -21.53064      -8.2623459     -8.2623459     -48.067229     -2.6132844e-11 -9.5441692e-12 -2.3633181e-11  9.216          9.216          9.2160922      782.76563    
        20   0             -472.768       -21.53064      -8.2623459     -8.2623459     -48.067229     -1.7724886e-11 -1.0339517e-11  5.4083626e-11  9.216          9.216          9.2160922      782.76563    
        21   0             -472.768       -21.53064      -8.2623459     -8.2623459     -48.067229     -2.2724212e-12 -1.1021243e-11  4.3176004e-11  9.216          9.216          9.2160922      782.76563    
        22   0             -472.768       -21.53064      -8.2623459     -8.2623459     -48.067229      3.317735e-11   1.2271075e-11 -2.7269055e-12  9.216          9.216          9.2160922      782.76563    
        23   0             -472.768       -21.53064      -8.2623459     -8.2623459     -48.067229     -1.7724886e-11  1.7384022e-11 -2.5451118e-11  9.216          9.216          9.2160922      782.76563    
        24   0             -472.768       -21.53064      -8.2623459     -8.2623459     -48.067229      1.1362106e-12  1.6247812e-11 -1.0907622e-11  9.216          9.216          9.2160922      782.76563    
        25   0             -472.768       -21.53064      -8.2623459     -8.2623459     -48.067229      1.3180043e-11  4.385773e-11   3.5904256e-11  9.216          9.216          9.2160922      782.76563    
        26   0             -472.768       -21.53064      -8.2623459     -8.2623459     -48.067229      1.5906949e-12 -1.8520233e-11 -2.4087665e-11  9.216          9.216          9.2160922      782.76563    
        27   0             -472.768       -21.53064      -8.2623459     -8.2623459     -48.067229      2.8405266e-11 -6.4764005e-12 -4.9993267e-11  9.216          9.216          9.2160922      782.76563    
Loop time of 0.0511822 on 1 procs for 18 steps with 64 atoms

99.3% CPU use with 1 MPI tasks x no OpenMP threads

Minimization stats:
  Stopping criterion = force tolerance
  Energy initial, next-to-last, final = 
     -472.767999896168  -472.767999896524  -472.767999896524
  Force two-norm initial, final = 0.00010300507 5.7586866e-13
  Force max component initial, final = 1.9494737e-05 1.1740608e-13
  Final line search alpha, max atom move = 1 1.1740608e-13
  Iterations, force evaluations = 18 36

MPI task timing breakdown:
Section |  min time  |  avg time  |  max time  |%varavg| %total
---------------------------------------------------------------
Pair    | 0.05078    | 0.05078    | 0.05078    |   0.0 | 99.21
Neigh   | 0          | 0          | 0          |   0.0 |  0.00
Comm    | 0.0001178  | 0.0001178  | 0.0001178  |   0.0 |  0.23
Output  | 0.00015964 | 0.00015964 | 0.00015964 |   0.0 |  0.31
Modify  | 0          | 0          | 0          |   0.0 |  0.00
Other   |            | 0.0001249  |            |       |  0.24

Nlocal:             64 ave          64 max          64 min
Histogram: 1 0 0 0 0 0 0 0 0 0
Nghost:            665 ave         665 max         665 min
Histogram: 1 0 0 0 0 0 0 0 0 0
Neighs:           2560 ave        2560 max        2560 min
Histogram: 1 0 0 0 0 0 0 0 0 0
FullNghs:         5120 ave        5120 max        5120 min
Histogram: 1 0 0 0 0 0 0 0 0 0

Total # of neighbors = 5120
Ave neighs/atom = 80
Neighbor list builds = 0
Dangerous builds = 0

# Obtain new stress tensor

variable tmp equal pe
variable e1 equal ${tmp}
variable e1 equal -472.767999896524
variable tmp equal press
variable p1 equal ${tmp}
variable p1 equal -21.5306402258106
variable tmp equal pxx
variable pxx1 equal ${tmp}
variable pxx1 equal -8.26234588365626
variable tmp equal pyy
variable pyy1 equal ${tmp}
variable pyy1 equal -8.26234588363524
variable tmp equal pzz
variable pzz1 equal ${tmp}
variable pzz1 equal -48.0672289101404
variable tmp equal pxy
variable pxy1 equal ${tmp}
variable pxy1 equal 2.84052655100175e-11
variable tmp equal pxz
variable pxz1 equal ${tmp}
variable pxz1 equal -6.476400536284e-12
variable tmp equal pyz
variable pyz1 equal ${tmp}
variable pyz1 equal -4.99932672976309e-11

# Compute elastic constant from pressure tensor

variable C1pos equal ${d1}
variable C1pos equal 82.6234588309269
variable C2pos equal ${d2}
variable C2pos equal 82.6234588305713
variable C3pos equal ${d3}
variable C3pos equal 480.672289095423
variable C4pos equal ${d4}
variable C4pos equal 4.63573569536088e-10
variable C5pos equal ${d5}
variable C5pos equal 1.37431171651178e-10
variable C6pos equal ${d6}
variable C6pos equal -4.47617579989066e-10

# Combine positive and negative

variable C1${dir} equal 0.5*(${C1neg}+${C1pos})
variable C13 equal 0.5*(${C1neg}+${C1pos})
variable C13 equal 0.5*(82.6277574250602+${C1pos})
variable C13 equal 0.5*(82.6277574250602+82.6234588309269)
variable C2${dir} equal 0.5*(${C2neg}+${C2pos})
variable C23 equal 0.5*(${C2neg}+${C2pos})
variable C23 equal 0.5*(82.6277574251534+${C2pos})
variable C23 equal 0.5*(82.6277574251534+82.6234588305713)
variable C3${dir} equal 0.5*(${C3neg}+${C3pos})
variable C33 equal 0.5*(${C3neg}+${C3pos})
variable C33 equal 0.5*(480.714531356567+${C3pos})
variable C33 equal 0.5*(480.714531356567+480.672289095423)
variable C4${dir} equal 0.5*(${C4neg}+${C4pos})
variable C43 equal 0.5*(${C4neg}+${C4pos})
variable C43 equal 0.5*(-1.63617965251681e-10+${C4pos})
variable C43 equal 0.5*(-1.63617965251681e-10+4.63573569536088e-10)
variable C5${dir} equal 0.5*(${C5neg}+${C5pos})
variable C53 equal 0.5*(${C5neg}+${C5pos})
variable C53 equal 0.5*(-8.97106664609438e-11+${C5pos})
variable C53 equal 0.5*(-8.97106664609438e-11+1.37431171651178e-10)
variable C6${dir} equal 0.5*(${C6neg}+${C6pos})
variable C63 equal 0.5*(${C6neg}+${C6pos})
variable C63 equal 0.5*(5.20342195168762e-10+${C6pos})
variable C63 equal 0.5*(5.20342195168762e-10+-4.47617579989066e-10)

# Delete dir to make sure it is not reused

variable dir delete

# uyz Perturbation

variable dir equal 4
include displace.mod
# NOTE: This script should not need to be
# modified. See in.elastic for more info.
#
# Find which reference length to use

if "${dir} == 1" then    "variable len0 equal ${lx0}"
if "${dir} == 2" then    "variable len0 equal ${ly0}"
if "${dir} == 3" then    "variable len0 equal ${lz0}"
if "${dir} == 4" then    "variable len0 equal ${lz0}"
variable len0 equal ${lz0}
variable len0 equal 9.2160000424006
if "${dir} == 5" then    "variable len0 equal ${lz0}"
if "${dir} == 6" then    "variable len0 equal ${ly0}"

# Reset box and simulation parameters

clear
box tilt large
read_restart restart.equil
Reading restart file ...
  restart file = 23 Jun 2022, LAMMPS = 23 Jun 2022
  restoring atom style atomic from restart
  triclinic box = (-4.608 -4.608 -4.608) to (4.608 4.608 4.608) with tilt (0 0 0)
  1 by 1 by 1 MPI processor grid
  pair style meam stores no restart info
  64 atoms
  read_restart CPU = 0.000 seconds
include potential.mod
# NOTE: This script can be modified for different pair styles
# See in.elastic for more info.

# Choose potential
pair_style	meam
pair_coeff * * library_ZrN.meam Zr N ZrN.meam Zr N
Reading MEAM library file library_ZrN.meam with DATE: 2015-02-12

# Setup neighbor style
neighbor 1.0 nsq
neigh_modify once no every 1 delay 0 check yes

# Setup minimization style
min_style	     cg
min_modify	     dmax ${dmax} line quadratic
min_modify	     dmax 0.01 line quadratic

# Setup output
thermo		1
thermo_style custom step temp pe press pxx pyy pzz pxy pxz pyz lx ly lz vol
thermo_modify norm no

# Negative deformation

variable delta equal -${up}*${len0}
variable delta equal -1e-05*${len0}
variable delta equal -1e-05*9.2160000424006
variable deltaxy equal -${up}*xy
variable deltaxy equal -1e-05*xy
variable deltaxz equal -${up}*xz
variable deltaxz equal -1e-05*xz
variable deltayz equal -${up}*yz
variable deltayz equal -1e-05*yz
if "${dir} == 1" then    "change_box all x delta 0 ${delta} xy delta ${deltaxy} xz delta ${deltaxz} remap units box"
if "${dir} == 2" then    "change_box all y delta 0 ${delta} yz delta ${deltayz} remap units box"
if "${dir} == 3" then    "change_box all z delta 0 ${delta} remap units box"
if "${dir} == 4" then    "change_box all yz delta ${delta} remap units box"
change_box all yz delta ${delta} remap units box
change_box all yz delta -9.2160000424006e-05 remap units box
Changing box ...
  triclinic box = (-4.608 -4.608 -4.608) to (4.608 4.608 4.608) with tilt (0 0 -9.216e-05)
if "${dir} == 5" then    "change_box all xz delta ${delta} remap units box"
if "${dir} == 6" then    "change_box all xy delta ${delta} remap units box"

# Relax atoms positions

minimize ${etol} ${ftol} ${maxiter} ${maxeval}
minimize 0 ${ftol} ${maxiter} ${maxeval}
minimize 0 1e-12 ${maxiter} ${maxeval}
minimize 0 1e-12 1000 ${maxeval}
minimize 0 1e-12 1000 1000
Neighbor list info ...
  update every 1 steps, delay 0 steps, check yes
  max neighbors/atom: 2000, page size: 100000
  master list distance cutoff = 6.26
  ghost atom cutoff = 6.26
  2 neighbor lists, perpetual/occasional/extra = 2 0 0
  (1) pair meam, perpetual
      attributes: full, newton on
      pair build: full/nsq
      stencil: none
      bin: none
  (2) pair meam, perpetual, half/full from (1)
      attributes: half, newton on
      pair build: halffull/newton
      stencil: none
      bin: none
Per MPI rank memory allocation (min/avg/max) = 9.918 | 9.918 | 9.918 Mbytes
   Step          Temp          PotEng         Press           Pxx            Pyy            Pzz            Pxy            Pxz            Pyz             Lx             Ly             Lz           Volume    
[...]
variable pxx1 equal ${tmp}
variable pxx1 equal -7.64338481934205e-06
variable tmp equal pyy
variable pyy1 equal ${tmp}
variable pyy1 equal 3.90713425755598e-05
variable tmp equal pzz
variable pzz1 equal ${tmp}
variable pzz1 equal -3.39323966618418e-05
variable tmp equal pxy
variable pxy1 equal ${tmp}
variable pxy1 equal 12.2874421012121
variable tmp equal pxz
variable pxz1 equal ${tmp}
variable pxz1 equal -5.11299892128107e-12
variable tmp equal pyz
variable pyz1 equal ${tmp}
variable pyz1 equal 2.09064844781271e-11

# Compute elastic constant from pressure tensor

variable C1neg equal ${d1}
variable C1neg equal -7.64282125326494e-05
variable C2neg equal ${d2}
variable C2neg equal 0.000390719206853045
variable C3neg equal ${d3}
variable C3neg equal -0.000339317985545902
variable C4neg equal ${d4}
variable C4neg equal 2.45423948221492e-10
variable C5neg equal ${d5}
variable C5neg equal -1.23797155501149e-10
variable C6neg equal ${d6}
variable C6neg equal 122.874421012285

# Reset box and simulation parameters

clear
box tilt large
read_restart restart.equil
Reading restart file ...
  restart file = 23 Jun 2022, LAMMPS = 23 Jun 2022
  restoring atom style atomic from restart
  triclinic box = (-4.608 -4.608 -4.608) to (4.608 4.608 4.608) with tilt (0 0 0)
  1 by 1 by 1 MPI processor grid
  pair style meam stores no restart info
  64 atoms
  read_restart CPU = 0.000 seconds
include potential.mod
# NOTE: This script can be modified for different pair styles
# See in.elastic for more info.

# Choose potential
pair_style	meam
pair_coeff * * library_ZrN.meam Zr N ZrN.meam Zr N
Reading MEAM library file library_ZrN.meam with DATE: 2015-02-12

# Setup neighbor style
neighbor 1.0 nsq
neigh_modify once no every 1 delay 0 check yes

# Setup minimization style
min_style	     cg
min_modify	     dmax ${dmax} line quadratic
min_modify	     dmax 0.01 line quadratic

# Setup output
thermo		1
thermo_style custom step temp pe press pxx pyy pzz pxy pxz pyz lx ly lz vol
thermo_modify norm no

# Positive deformation

variable delta equal ${up}*${len0}
variable delta equal 1e-05*${len0}
variable delta equal 1e-05*9.2160000424006
variable deltaxy equal ${up}*xy
variable deltaxy equal 1e-05*xy
variable deltaxz equal ${up}*xz
variable deltaxz equal 1e-05*xz
variable deltayz equal ${up}*yz
variable deltayz equal 1e-05*yz
if "${dir} == 1" then    "change_box all x delta 0 ${delta} xy delta ${deltaxy} xz delta ${deltaxz} remap units box"
if "${dir} == 2" then    "change_box all y delta 0 ${delta} yz delta ${deltayz} remap units box"
if "${dir} == 3" then    "change_box all z delta 0 ${delta} remap units box"
if "${dir} == 4" then    "change_box all yz delta ${delta} remap units box"
if "${dir} == 5" then    "change_box all xz delta ${delta} remap units box"
if "${dir} == 6" then    "change_box all xy delta ${delta} remap units box"
change_box all xy delta ${delta} remap units box
change_box all xy delta 9.2160000424006e-05 remap units box
Changing box ...
  triclinic box = (-4.608 -4.608 -4.608) to (4.608 4.608 4.608) with tilt (9.216e-05 0 0)

# Relax atoms positions

minimize ${etol} ${ftol} ${maxiter} ${maxeval}
minimize 0 ${ftol} ${maxiter} ${maxeval}
minimize 0 1e-12 ${maxiter} ${maxeval}
minimize 0 1e-12 1000 ${maxeval}
minimize 0 1e-12 1000 1000
Neighbor list info ...
  update every 1 steps, delay 0 steps, check yes
  max neighbors/atom: 2000, page size: 100000
  master list distance cutoff = 6.26
  ghost atom cutoff = 6.26
  2 neighbor lists, perpetual/occasional/extra = 2 0 0
  (1) pair meam, perpetual
      attributes: full, newton on
      pair build: full/nsq
      stencil: none
      bin: none
  (2) pair meam, perpetual, half/full from (1)
      attributes: half, newton on
      pair build: halffull/newton
      stencil: none
      bin: none
Per MPI rank memory allocation (min/avg/max) = 9.918 | 9.918 | 9.918 Mbytes
   Step          Temp          PotEng         Press           Pxx            Pyy            Pzz            Pxy            Pxz            Pyz             Lx             Ly             Lz           Volume    
         9   0             -472.768        4.51785e-07   -6.1571448e-06  4.0179003e-05 -3.2666503e-05 -12.287442      2.720229e-08   7.1913762e-09  9.216          9.216          9.216          782.7578     
        10   0             -472.768       -7.5665336e-07 -7.5359945e-06  3.9131071e-05 -3.3865036e-05 -12.287442     -5.8563153e-09 -3.6390918e-09  9.216          9.216          9.216          782.7578     
        11   0             -472.768       -8.2344064e-07 -7.6298943e-06  3.9085387e-05 -3.3925815e-05 -12.287442     -6.40227e-09    8.4171324e-10  9.216          9.216          9.216          782.7578     
        12   0             -472.768       -8.3247921e-07 -7.6416672e-06  3.9074162e-05 -3.3929933e-05 -12.287442     -1.2605247e-09  6.121964e-10   9.216          9.216          9.216          782.7578     
        13   0             -472.768       -8.3380624e-07 -7.6421676e-06  3.907224e-05  -3.3931491e-05 -12.287442     -5.5618066e-10  2.9041834e-10  9.216          9.216          9.216          782.7578     
        14   0             -472.768       -8.3441931e-07 -7.6430267e-06  3.9071789e-05 -3.393202e-05  -12.287442     -1.4009617e-10  5.6811099e-11  9.216          9.216          9.216          782.7578     
        15   0             -472.768       -8.3457485e-07 -7.6431616e-06  3.907166e-05  -3.3932223e-05 -12.287442     -1.8406796e-11  2.3178928e-11  9.216          9.216          9.216          782.7578     
        16   0             -472.768       -8.3464655e-07 -7.6433132e-06  3.9071681e-05 -3.3932307e-05 -12.287442      2.272444e-12   3.1359727e-11  9.216          9.216          9.216          782.7578     
        17   0             -472.768       -8.347537e-07  -7.6433522e-06  3.9071493e-05 -3.3932401e-05 -12.287442      2.9541772e-12 -5.5902122e-11  9.216          9.216          9.216          782.7578     
        18   0             -472.768       -8.3479058e-07 -7.6434499e-06  3.9071431e-05 -3.3932353e-05 -12.287442     -4.3517302e-11 -7.7263095e-12  9.216          9.216          9.216          782.7578     
        19   0             -472.768       -8.3472419e-07 -7.6433148e-06  3.907152e-05  -3.3932378e-05 -12.287442      5.4538655e-12  2.4996884e-11  9.216          9.216          9.216          782.7578     
        20   0             -472.768       -8.3469825e-07 -7.6433665e-06  3.9071596e-05 -3.3932324e-05 -12.287442     -1.4770886e-11 -7.2718207e-12  9.216          9.216          9.216          782.7578     
        21   0             -472.768       -8.3470787e-07 -7.6433658e-06  3.9071592e-05 -3.3932349e-05 -12.287442     -1.4202775e-11  9.9987534e-12  9.216          9.216          9.216          782.7578     
        22   0             -472.768       -8.3473362e-07 -7.6433758e-06  3.9071534e-05 -3.3932359e-05 -12.287442      9.8851312e-12 -1.6816085e-11  9.216          9.216          9.216          782.7578     
        23   0             -472.768       -8.34759e-07   -7.6434177e-06  3.9071623e-05 -3.3932483e-05 -12.287442      6.1355987e-12 -3.6359103e-12  9.216          9.216          9.216          782.7578     
        24   0             -472.768       -8.3474578e-07 -7.6433244e-06  3.907138e-05  -3.3932293e-05 -12.287442      7.6126873e-12  5.7265588e-11  9.216          9.216          9.216          782.7578     
        25   0             -472.768       -8.3479945e-07 -7.6433554e-06  3.9071279e-05 -3.3932322e-05 -12.287442     -1.2498442e-11  2.3633417e-11  9.216          9.216          9.216          782.7578     
        26   0             -472.768       -8.349133e-07  -7.6434397e-06  3.9071228e-05 -3.3932528e-05 -12.287442      2.3860662e-12  4.4994391e-11  9.216          9.216          9.216          782.7578     
        27   0             -472.768       -8.3482013e-07 -7.6433395e-06  3.9071323e-05 -3.3932444e-05 -12.287442      6.7037097e-12  6.9082297e-11  9.216          9.216          9.216          782.7578     
Loop time of 0.0507788 on 1 procs for 18 steps with 64 atoms

99.3% CPU use with 1 MPI tasks x no OpenMP threads

Minimization stats:
  Stopping criterion = force tolerance
  Energy initial, next-to-last, final = 
     -472.767999983572   -472.76799998393  -472.767999983931
  Force two-norm initial, final = 0.00010300751 3.202137e-13
  Force max component initial, final = 1.9496437e-05 6.1117778e-14
  Final line search alpha, max atom move = 1 6.1117778e-14
  Iterations, force evaluations = 18 36

MPI task timing breakdown:
Section |  min time  |  avg time  |  max time  |%varavg| %total
---------------------------------------------------------------
Pair    | 0.050366   | 0.050366   | 0.050366   |   0.0 | 99.19
Neigh   | 0          | 0          | 0          |   0.0 |  0.00
Comm    | 0.00011756 | 0.00011756 | 0.00011756 |   0.0 |  0.23
Output  | 0.00017169 | 0.00017169 | 0.00017169 |   0.0 |  0.34
Modify  | 0          | 0          | 0          |   0.0 |  0.00
Other   |            | 0.0001237  |            |       |  0.24

Nlocal:             64 ave          64 max          64 min
Histogram: 1 0 0 0 0 0 0 0 0 0
Nghost:            665 ave         665 max         665 min
Histogram: 1 0 0 0 0 0 0 0 0 0
Neighs:           2560 ave        2560 max        2560 min
Histogram: 1 0 0 0 0 0 0 0 0 0
FullNghs:         5120 ave        5120 max        5120 min
Histogram: 1 0 0 0 0 0 0 0 0 0

Total # of neighbors = 5120
Ave neighs/atom = 80
Neighbor list builds = 0
Dangerous builds = 0

# Obtain new stress tensor

variable tmp equal pe
variable e1 equal ${tmp}
variable e1 equal -472.767999983931
variable tmp equal press
variable p1 equal ${tmp}
variable p1 equal -8.34820126739841e-07
variable tmp equal pxx
variable pxx1 equal ${tmp}
variable pxx1 equal -7.64333948408495e-06
variable tmp equal pyy
variable pyy1 equal ${tmp}
variable pyy1 equal 3.90713234870305e-05
variable tmp equal pzz
variable pzz1 equal ${tmp}
variable pzz1 equal -3.3932444383165e-05
variable tmp equal pxy
variable pxy1 equal ${tmp}
variable pxy1 equal -12.2874421012036
variable tmp equal pxz
variable pxz1 equal ${tmp}
variable pxz1 equal 6.70370969679074e-12
variable tmp equal pyz
variable pyz1 equal ${tmp}
variable pyz1 equal 6.90822965364198e-11

# Compute elastic constant from pressure tensor

variable C1pos equal ${d1}
variable C1pos equal 7.64277591800784e-05
variable C2pos equal ${d2}
variable C2pos equal -0.000390719015967752
variable C3pos equal ${d3}
variable C3pos equal 0.000339318462759134
variable C4pos equal ${d4}
variable C4pos equal -7.27182068804419e-10
variable C5pos equal ${d5}
variable C5pos equal 5.6300693204311e-12
variable C6pos equal ${d6}
variable C6pos equal 122.874421011872

# Combine positive and negative

variable C1${dir} equal 0.5*(${C1neg}+${C1pos})
variable C16 equal 0.5*(${C1neg}+${C1pos})
variable C16 equal 0.5*(-7.64282125326494e-05+${C1pos})
variable C16 equal 0.5*(-7.64282125326494e-05+7.64277591800784e-05)
variable C2${dir} equal 0.5*(${C2neg}+${C2pos})
variable C26 equal 0.5*(${C2neg}+${C2pos})
variable C26 equal 0.5*(0.000390719206853045+${C2pos})
variable C26 equal 0.5*(0.000390719206853045+-0.000390719015967752)
variable C3${dir} equal 0.5*(${C3neg}+${C3pos})
variable C36 equal 0.5*(${C3neg}+${C3pos})
variable C36 equal 0.5*(-0.000339317985545902+${C3pos})
variable C36 equal 0.5*(-0.000339317985545902+0.000339318462759134)
variable C4${dir} equal 0.5*(${C4neg}+${C4pos})
variable C46 equal 0.5*(${C4neg}+${C4pos})
variable C46 equal 0.5*(2.45423948221492e-10+${C4pos})
variable C46 equal 0.5*(2.45423948221492e-10+-7.27182068804419e-10)
variable C5${dir} equal 0.5*(${C5neg}+${C5pos})
variable C56 equal 0.5*(${C5neg}+${C5pos})
variable C56 equal 0.5*(-1.23797155501149e-10+${C5pos})
variable C56 equal 0.5*(-1.23797155501149e-10+5.6300693204311e-12)
variable C6${dir} equal 0.5*(${C6neg}+${C6pos})
variable C66 equal 0.5*(${C6neg}+${C6pos})
variable C66 equal 0.5*(122.874421012285+${C6pos})
variable C66 equal 0.5*(122.874421012285+122.874421011872)

# Delete dir to make sure it is not reused

variable dir delete

# Output final values

variable C11all equal ${C11}
variable C11all equal 480.693410225742
variable C22all equal ${C22}
variable C22all equal 480.693410226155
variable C33all equal ${C33}
variable C33all equal 480.693410225995

variable C12all equal 0.5*(${C12}+${C21})
variable C12all equal 0.5*(82.625608127918+${C21})
variable C12all equal 0.5*(82.625608127918+82.6256081273897)
variable C13all equal 0.5*(${C13}+${C31})
variable C13all equal 0.5*(82.6256081279935+${C31})
variable C13all equal 0.5*(82.6256081279935+82.6256081278202)
variable C23all equal 0.5*(${C23}+${C32})
variable C23all equal 0.5*(82.6256081278623+${C32})
variable C23all equal 0.5*(82.6256081278623+82.6256081278805)

variable C44all equal ${C44}
variable C44all equal 122.874421012013
variable C55all equal ${C55}
variable C55all equal 122.874421012139
variable C66all equal ${C66}
variable C66all equal 122.874421012078

variable C14all equal 0.5*(${C14}+${C41})
variable C14all equal 0.5*(1.05668644488762e-10+${C41})
variable C14all equal 0.5*(1.05668644488762e-10+6.81697284957665e-11)
variable C15all equal 0.5*(${C15}+${C51})
variable C15all equal 0.5*(-1.4941319070248e-10+${C51})
variable C15all equal 0.5*(-1.4941319070248e-10+1.15891915294535e-10)
variable C16all equal 0.5*(${C16}+${C61})
variable C16all equal 0.5*(-2.2667628550284e-10+${C61})
variable C16all equal 0.5*(-2.2667628550284e-10+-4.88580565525751e-11)

variable C24all equal 0.5*(${C24}+${C42})
variable C24all equal 0.5*(2.499688361507e-10+${C42})
variable C24all equal 0.5*(2.499688361507e-10+-3.77228697856049e-10)
variable C25all equal 0.5*(${C25}+${C52})
variable C25all equal 0.5*(1.59071078005687e-10+${C52})
variable C25all equal 0.5*(1.59071078005687e-10+-2.10200555484906e-11)
variable C26all equal 0.5*(${C26}+${C62})
variable C26all equal 0.5*(9.54426464889937e-11+${C62})
variable C26all equal 0.5*(9.54426464889937e-11+6.8173318950018e-16)

variable C34all equal 0.5*(${C34}+${C43})
variable C34all equal 0.5*(-9.08977585041548e-11+${C43})
variable C34all equal 0.5*(-9.08977585041548e-11+1.49977802142204e-10)
variable C35all equal 0.5*(${C35}+${C53})
variable C35all equal 0.5*(-4.19265911485306e-10+${C53})
variable C35all equal 0.5*(-4.19265911485306e-10+2.38602525951171e-11)
variable C36all equal 0.5*(${C36}+${C63})
variable C36all equal 0.5*(2.38606615992091e-10+${C63})
variable C36all equal 0.5*(2.38606615992091e-10+3.6362307589848e-11)

variable C45all equal 0.5*(${C45}+${C54})
variable C45all equal 0.5*(5.59021215393398e-10+${C54})
variable C45all equal 0.5*(5.59021215393398e-10+-1.48845079708405e-10)
variable C46all equal 0.5*(${C46}+${C64})
variable C46all equal 0.5*(-2.40879060291463e-10+${C64})
variable C46all equal 0.5*(-2.40879060291463e-10+6.59008749854005e-11)
variable C56all equal 0.5*(${C56}+${C65})
variable C56all equal 0.5*(-5.90835430903589e-11+${C65})
variable C56all equal 0.5*(-5.90835430903589e-11+-1.5907107755097e-11)

# Average moduli for cubic crystals

variable C11cubic equal (${C11all}+${C22all}+${C33all})/3.0
variable C11cubic equal (480.693410225742+${C22all}+${C33all})/3.0
variable C11cubic equal (480.693410225742+480.693410226155+${C33all})/3.0
variable C11cubic equal (480.693410225742+480.693410226155+480.693410225995)/3.0
variable C12cubic equal (${C12all}+${C13all}+${C23all})/3.0
variable C12cubic equal (82.6256081276538+${C13all}+${C23all})/3.0
variable C12cubic equal (82.6256081276538+82.6256081279068+${C23all})/3.0
variable C12cubic equal (82.6256081276538+82.6256081279068+82.6256081278714)/3.0
variable C44cubic equal (${C44all}+${C55all}+${C66all})/3.0
variable C44cubic equal (122.874421012013+${C55all}+${C66all})/3.0
variable C44cubic equal (122.874421012013+122.874421012139+${C66all})/3.0
variable C44cubic equal (122.874421012013+122.874421012139+122.874421012078)/3.0

variable bulkmodulus equal (${C11cubic}+2*${C12cubic})/3.0
variable bulkmodulus equal (480.693410225964+2*${C12cubic})/3.0
variable bulkmodulus equal (480.693410225964+2*82.6256081278107)/3.0
variable shearmodulus1 equal ${C44cubic}
variable shearmodulus1 equal 122.874421012077
variable shearmodulus2 equal (${C11cubic}-${C12cubic})/2.0
variable shearmodulus2 equal (480.693410225964-${C12cubic})/2.0
variable shearmodulus2 equal (480.693410225964-82.6256081278107)/2.0
variable poissonratio equal 1.0/(1.0+${C11cubic}/${C12cubic})
variable poissonratio equal 1.0/(1.0+480.693410225964/${C12cubic})
variable poissonratio equal 1.0/(1.0+480.693410225964/82.6256081278107)

# For Stillinger-Weber silicon, the analytical results
# are known to be (E. R. Cowley, 1988):
#               C11 = 151.4 GPa
#               C12 = 76.4 GPa
#               C44 = 56.4 GPa

print "========================================="
=========================================
print "Components of the Elastic Constant Tensor"
Components of the Elastic Constant Tensor
print "========================================="
=========================================

print "Elastic Constant C11all = ${C11all} ${cunits}"
Elastic Constant C11all = 480.693410225742 GPa
print "Elastic Constant C22all = ${C22all} ${cunits}"
Elastic Constant C22all = 480.693410226155 GPa
print "Elastic Constant C33all = ${C33all} ${cunits}"
Elastic Constant C33all = 480.693410225995 GPa

print "Elastic Constant C12all = ${C12all} ${cunits}"
Elastic Constant C12all = 82.6256081276538 GPa
print "Elastic Constant C13all = ${C13all} ${cunits}"
Elastic Constant C13all = 82.6256081279068 GPa
print "Elastic Constant C23all = ${C23all} ${cunits}"
Elastic Constant C23all = 82.6256081278714 GPa

print "Elastic Constant C44all = ${C44all} ${cunits}"
Elastic Constant C44all = 122.874421012013 GPa
print "Elastic Constant C55all = ${C55all} ${cunits}"
Elastic Constant C55all = 122.874421012139 GPa
print "Elastic Constant C66all = ${C66all} ${cunits}"
Elastic Constant C66all = 122.874421012078 GPa

print "Elastic Constant C14all = ${C14all} ${cunits}"
Elastic Constant C14all = 8.69191864922643e-11 GPa
print "Elastic Constant C15all = ${C15all} ${cunits}"
Elastic Constant C15all = -1.67606377039725e-11 GPa
print "Elastic Constant C16all = ${C16all} ${cunits}"
Elastic Constant C16all = -1.37767171027708e-10 GPa

print "Elastic Constant C24all = ${C24all} ${cunits}"
Elastic Constant C24all = -6.36299308526745e-11 GPa
print "Elastic Constant C25all = ${C25all} ${cunits}"
Elastic Constant C25all = 6.90255112285982e-11 GPa
print "Elastic Constant C26all = ${C26all} ${cunits}"
Elastic Constant C26all = 4.77216641110916e-11 GPa

print "Elastic Constant C34all = ${C34all} ${cunits}"
Elastic Constant C34all = 2.95400218190246e-11 GPa
print "Elastic Constant C35all = ${C35all} ${cunits}"
Elastic Constant C35all = -1.97702829445094e-10 GPa
print "Elastic Constant C36all = ${C36all} ${cunits}"
Elastic Constant C36all = 1.37484461790969e-10 GPa

print "Elastic Constant C45all = ${C45all} ${cunits}"
Elastic Constant C45all = 2.05088067842497e-10 GPa
print "Elastic Constant C46all = ${C46all} ${cunits}"
Elastic Constant C46all = -8.74890926530312e-11 GPa
print "Elastic Constant C56all = ${C56all} ${cunits}"
Elastic Constant C56all = -3.74953254227279e-11 GPa

print "========================================="
=========================================
print "Average properties for a cubic crystal"
Average properties for a cubic crystal
print "========================================="
=========================================

print "Bulk Modulus = ${bulkmodulus} ${cunits}"
Bulk Modulus = 215.314875493862 GPa
print "Shear Modulus 1 = ${shearmodulus1} ${cunits}"
Shear Modulus 1 = 122.874421012077 GPa
print "Shear Modulus 2 = ${shearmodulus2} ${cunits}"
Shear Modulus 2 = 199.033901049077 GPa
print "Poisson Ratio = ${poissonratio}"
Poisson Ratio = 0.146676404374333
variable length equal "lx"
print "Lattice constant (Angstroms) = ${length};"
Lattice constant (Angstroms) = 9.2160000424006;
Total wall time: 0:00:00
