LAMMPS (23 Jun 2022 - Update 1)
Lattice spacing in x,y,z = 4.611 4.611 4.611
Created triclinic box = (-4.611 -4.611 -4.611) to (4.611 4.611 4.611) with tilt (0 0 0)
  1 by 1 by 1 MPI processor grid
Lattice spacing in x,y,z = 4.611 4.611 4.611
Created 32 atoms
  using lattice units in triclinic box = (-4.611 -4.611 -4.611) to (4.611 4.611 4.611) with tilt (0 0 0)
  create_atoms CPU = 0.000 seconds
Lattice spacing in x,y,z = 4.611 4.611 4.611
Created 32 atoms
  using lattice units in triclinic box = (-4.611 -4.611 -4.611) to (4.611 4.611 4.611) with tilt (0 0 0)
  create_atoms CPU = 0.000 seconds
Reading MEAM library file library_ZrN.meam with DATE: 2015-02-12
Neighbor list info ...
  update every 1 steps, delay 0 steps, check yes
  max neighbors/atom: 2000, page size: 100000
  master list distance cutoff = 6.26
  ghost atom cutoff = 6.26
  2 neighbor lists, perpetual/occasional/extra = 2 0 0
  (1) pair meam, perpetual
      attributes: full, newton on
      pair build: full/nsq
      stencil: none
      bin: none
  (2) pair meam, perpetual, half/full from (1)
      attributes: half, newton on
      pair build: halffull/newton
      stencil: none
      bin: none
Setting up cg style minimization ...
  Unit style    : metal
  Current step  : 0
WARNING: Energy due to 3 extra global DOFs will be included in minimizer energies
Per MPI rank memory allocation (min/avg/max) = 10.94 | 10.94 | 10.94 Mbytes
   Step          Temp          PotEng         Press           Pxx            Pyy            Pzz            Pxy            Pxz            Pyz             Lx             Ly             Lz           Volume    
         0   0             -472.766       -4187.677      -4187.677      -4187.677      -4187.677      -6.3185889e-14 -4.6777735e-13 -2.5515128e-13  9.222          9.222          9.222          784.28761    
         1   0             -472.76657     -3546.3188     -3546.3188     -3546.3188     -3546.3188     -3.5018963e-14 -1.9849998e-13  2.6940717e-13  9.2210778      9.2210778      9.2210778      784.05235    
         2   0             -472.76704     -2904.1284     -2904.1284     -2904.1284     -2904.1284     -6.8566264e-14 -4.9629808e-14 -1.7729475e-13  9.2201556      9.2201556      9.2201556      783.81713    
         3   0             -472.76742     -2261.1052     -2261.1052     -2261.1052     -2261.1052     -7.0804249e-14  5.6761474e-14  2.1281755e-14  9.2192334      9.2192334      9.2192334      783.58196    
         4   0             -472.7677      -1617.2485     -1617.2485     -1617.2485     -1617.2485      4.7971937e-15 -1.7733092e-14  2.838419e-14   9.2183112      9.2183112      9.2183112      783.34684    
         5   0             -472.76789     -972.55795     -972.55795     -972.55795     -972.55795     -9.0558918e-15 -2.3060999e-14 -2.4843622e-14  9.217389       9.217389       9.217389       783.11177    
         6   0             -472.76799     -327.03289     -327.03289     -327.03289     -327.03289     -1.2757761e-14  2.3966705e-14  1.7750771e-15  9.2164668      9.2164668      9.2164668      782.87674    
         7   0             -472.768       -0.072064086   -0.072064086   -0.072064086   -0.072064086    2.6484042e-19  4.3509201e-19  1.3003028e-18  9.2160002      9.2160002      9.2160002      782.75783    
         8   0             -472.768       -1.1318549e-05 -1.1318518e-05 -1.1318518e-05 -1.131861e-05  -2.8141553e-22 -6.0822325e-22 -6.0845878e-22  9.2160001      9.2160001      9.2160001      782.7578     
         9   0             -472.768        8.0106377e-11  7.1991025e-11  7.6179594e-11  9.2148512e-11  2.1429847e-25 -2.1943283e-25 -1.2917348e-25  9.2160001      9.2160001      9.2160001      782.7578     
Loop time of 0.0115106 on 1 procs for 9 steps with 64 atoms

96.5% CPU use with 1 MPI tasks x no OpenMP threads

Minimization stats:
  Stopping criterion = force tolerance
  Energy initial, next-to-last, final = 
     -472.765997517991  -472.768000018166  -472.768000018166
  Force two-norm initial, final = 3.5505759 2.4788391e-13
  Force max component initial, final = 2.0499259 4.5049298e-14
  Final line search alpha, max atom move = 1 4.5049298e-14
  Iterations, force evaluations = 9 12

MPI task timing breakdown:
Section |  min time  |  avg time  |  max time  |%varavg| %total
---------------------------------------------------------------
Pair    | 0.010461   | 0.010461   | 0.010461   |   0.0 | 90.88
Neigh   | 0          | 0          | 0          |   0.0 |  0.00
Comm    | 4.6583e-05 | 4.6583e-05 | 4.6583e-05 |   0.0 |  0.40
Output  | 0.00072845 | 0.00072845 | 0.00072845 |   0.0 |  6.33
Modify  | 0          | 0          | 0          |   0.0 |  0.00
Other   |            | 0.0002745  |            |       |  2.38

Nlocal:             64 ave          64 max          64 min
Histogram: 1 0 0 0 0 0 0 0 0 0
Nghost:            665 ave         665 max         665 min
Histogram: 1 0 0 0 0 0 0 0 0 0
Neighs:           2560 ave        2560 max        2560 min
Histogram: 1 0 0 0 0 0 0 0 0 0
FullNghs:         5120 ave        5120 max        5120 min
Histogram: 1 0 0 0 0 0 0 0 0 0

Total # of neighbors = 5120
Ave neighs/atom = 80
Neighbor list builds = 0
Dangerous builds = 0
Displacing atoms ...
System init for write_restart ...
Reading restart file ...
  restart file = 23 Jun 2022, LAMMPS = 23 Jun 2022
  restoring atom style atomic from restart
  triclinic box = (-4.608 -4.608 -4.608) to (4.608 4.608 4.608) with tilt (0 0 0)
  1 by 1 by 1 MPI processor grid
  pair style meam stores no restart info
  64 atoms
  read_restart CPU = 0.000 seconds
Reading MEAM library file library_ZrN.meam with DATE: 2015-02-12
Changing box ...
  triclinic box = (-4.608 -4.608 -4.608) to (4.6079079 4.608 4.608) with tilt (0 0 0)
  triclinic box = (-4.608 -4.608 -4.608) to (4.6079079 4.608 4.608) with tilt (0 0 0)
  triclinic box = (-4.608 -4.608 -4.608) to (4.6079079 4.608 4.608) with tilt (0 0 0)
Neighbor list info ...
  update every 1 steps, delay 0 steps, check yes
  max neighbors/atom: 2000, page size: 100000
  master list distance cutoff = 6.26
  ghost atom cutoff = 6.26
  2 neighbor lists, perpetual/occasional/extra = 2 0 0
  (1) pair meam, perpetual
      attributes: full, newton on
      pair build: full/nsq
      stencil: none
      bin: none
  (2) pair meam, perpetual, half/full from (1)
      attributes: half, newton on
      pair build: halffull/newton
      stencil: none
      bin: none
Setting up cg style minimization ...
  Unit style    : metal
  Current step  : 9
Per MPI rank memory allocation (min/avg/max) = 9.929 | 9.929 | 9.929 Mbytes
   Step          Temp          PotEng         Press           Pxx            Pyy            Pzz            Pxy            Pxz            Pyz             Lx             Ly             Lz           Volume    
         9   0             -472.768        21.532417      57.77597       3.4106403      3.4106403     -1.079762e-07   2.3983911e-08 -2.2035188e-07  9.2159079      9.2160001      9.2160001      782.74998    
        10   0             -472.768        21.532416      57.775969      3.4106388      3.4106388     -1.8307744e-08  2.6732941e-08 -1.8961494e-08  9.2159079      9.2160001      9.2160001      782.74998    
        11   0             -472.768        21.532415      57.775969      3.4106386      3.4106387      1.8592954e-09 -3.3960351e-09 -1.487137e-09   9.2159079      9.2160001      9.2160001      782.74998    
        12   0             -472.768        21.532415      57.775969      3.4106386      3.4106386     -1.5701085e-09 -3.0864018e-09  3.4272459e-10  9.2159079      9.2160001      9.2160001      782.74998    
        13   0             -472.768        21.532415      57.775969      3.4106386      3.4106386      4.4927679e-10 -5.2396213e-09 -1.7459571e-09  9.2159079      9.2160001      9.2160001      782.74998    
        14   0             -472.768        21.532414      57.775968      3.4106374      3.4106378      2.1251383e-08 -7.8796577e-08 -2.3595082e-08  9.2159079      9.2160001      9.2160001      782.74998    
        15   0             -472.768        21.532232      57.775746      3.4104459      3.4105033      2.3172602e-07 -1.0374603e-05  8.0639963e-07  9.2159079      9.2160001      9.2160001      782.74998    
        16   0             -472.76803      19.866228      55.752725      1.6671023      2.178857       0.0081530506  -0.097230005    0.0040302304   9.2159079      9.2160001      9.2160001      782.74998    
        17   0             -472.76978     -66.009574     -48.524933     -88.189915     -61.313873      0.43812551    -5.1010177      0.23139072     9.2159079      9.2160001      9.2160001      782.74998    
        18   0             -472.77416     -281.93045     -310.70916     -314.09481     -220.98739      1.5320298     -17.64407       0.89352833     9.2159079      9.2160001      9.2160001      782.74998    
        19   0             -472.78113     -627.72538     -730.57629     -675.80122     -476.79861      3.3061007     -37.664095      2.1296057      9.2159079      9.2160001      9.2160001      782.74998    
        20   0             -472.79063     -1103.1248     -1307.7744     -1172.9167     -828.68343      5.7817801     -65.092868      4.1008044      9.2159079      9.2160001      9.2160001      782.74998    
        21   0             -472.80258     -1707.791      -2041.8573     -1804.9313     -1276.5844      8.9983093     -99.865166      6.9806579      9.2159079      9.2160001      9.2160001      782.74998    
        22   0             -472.81689     -2441.4915     -2932.4944     -2571.3809     -1820.5992      13.08345      -141.96903      10.902736      9.2159079      9.2160001      9.2160001      782.74998    
        23   0             -472.83352     -3305.102      -3980.6778     -3472.7512     -2461.8771      18.730714     -191.77821      15.603235      9.2159079      9.2160001      9.2160001      782.74998    
        24   0             -472.85294     -4304.5263     -5193.355      -4513.4134     -3206.8106      31.113779     -252.57803      17.379861      9.2159079      9.2160001      9.2160001      782.74998    
        25   0             -472.87595     -5354.3397     -6460.9857     -5593.3617     -4008.6718      105.05728     -353.37734     -29.32032       9.2159079      9.2160001      9.2160001      782.74998    
        26   0             -472.89946     -6535.9376     -7856.6063     -6803.3771     -4947.8295      144.85998     -472.42615     -50.555803      9.2159079      9.2160001      9.2160001      782.74998    
        27   0             -472.92556     -7911.3014     -9463.5189     -8216.7087     -6053.6766      198.55945     -1029.1421     -24.20729       9.2159079      9.2160001      9.2160001      782.74998    
        28   0             -472.95058     -9271.5006     -11076.948     -9584.464      -7153.0897      280.43535     -1469.8341     -54.47937       9.2159079      9.2160001      9.2160001      782.74998    
        29   0             -472.97564     -10705.026     -12789.28      -11017.865     -8307.9333      479.30523     -2680.6006      8.5577624      9.2159079      9.2160001      9.2160001      782.74998    
        30   0             -473.0004      -12043.683     -14442.709     -12294.912     -9393.4286      859.5696      -3035.993      -8.8960104      9.2159079      9.2160001      9.2160001      782.74998    
        31   0             -473.02593     -13527.315     -16289.645     -13697.05      -10595.25       1342.4177     -4064.5362      45.582534      9.2159079      9.2160001      9.2160001      782.74998    
        32   0             -473.04726     -14587.074     -17659.762     -14666.691     -11434.768      1462.3281     -4260.1501      39.029814      9.2159079      9.2160001      9.2160001      782.74998    
        33   0             -473.07316     -15821.264     -19261.895     -15803.022     -12398.875      1818.7462     -4276.6526      37.672282      9.2159079      9.2160001      9.2160001      782.74998    
        34   0             -473.0966      -16931.862     -20682.339     -16866.173     -13247.073      1756.1079     -4870.0413      36.044182      9.2159079      9.2160001      9.2160001      782.74998    
        35   0             -473.12271     -18229.717     -22310.625     -18139.398     -14239.129      1961.3355     -5309.8926     -217.29796      9.2159079      9.2160001      9.2160001      782.74998    
        36   0             -473.1469      -19448.235     -23857.554     -19365.194     -15121.956      2057.6094     -5406.1102     -743.83391      9.2159079      9.2160001      9.2160001      782.74998    
        37   0             -473.16935     -20659.041     -25417.558     -20609.283     -15950.283      2267.1959     -5671.9797     -1085.7472      9.2159079      9.2160001      9.2160001      782.74998    
        38   0             -473.18893     -21759.327     -26873.576     -21738.284     -16666.122      2692.1603     -6479.9335     -1407.503       9.2159079      9.2160001      9.2160001      782.74998    
        39   0             -473.2093      -22681.127     -28246.199     -22665.832     -17131.349      2856.1447     -6816.528      -640.79837      9.2159079      9.2160001      9.2160001      782.74998    
        40   0             -473.23138     -23642.837     -29752.106     -23559.869     -17616.535      3113.1386     -6492.1883     -778.16766      9.2159079      9.2160001      9.2160001      782.74998    
        41   0             -473.25588     -24643.217     -31357.804     -24488.948     -18082.897      3334.0275     -6028.189      -602.71948      9.2159079      9.2160001      9.2160001      782.74998    
        42   0             -473.28088     -25733.588     -33120.917     -25498.363     -18581.484      3623.6156     -5966.2998     -652.72284      9.2159079      9.2160001      9.2160001      782.74998    
        43   0             -473.30367     -26901.253     -35027.459     -26618.366     -19057.934      4112.8799     -6167.9975     -948.71799      9.2159079      9.2160001      9.2160001      782.74998    
        44   0             -473.32298     -27903.954     -36827.296     -27552.929     -19331.635      4734.806      -5823.9939     -165.8585       9.2159079      9.2160001      9.2160001      782.74998    
        45   0             -473.33982     -28562.374     -38508.155     -28001.568     -19177.399      5082.2679     -5147.5557     -756.28771      9.2159079      9.2160001      9.2160001      782.74998    
        46   0             -473.35802     -29328.312     -40459.357     -28463.897     -19061.683      5432.4326     -4784.0684     -700.78909      9.2159079      9.2160001      9.2160001      782.74998    
        47   0             -473.37431     -30070.482     -42553.834     -28847.013     -18810.597      5180.8972     -4826.3292     -576.97427      9.2159079      9.2160001      9.2160001      782.74998    
        48   0             -473.38983     -30901.001     -44994.761     -29242.896     -18465.344      4602.6629     -4978.9587     -196.5118       9.2159079      9.2160001      9.2160001      782.74998    
        49   0             -473.40323     -31678.645     -47618.845     -29512.297     -17904.794      3921.547      -5002.7783      743.42031      9.2159079      9.2160001      9.2160001      782.74998    
        50   0             -473.41511     -32440.845     -50264.331     -29820.533     -17237.672      3204.3594     -4803.4256      422.12398      9.2159079      9.2160001      9.2160001      782.74998    
        51   0             -473.42669     -33480.166     -53257.995     -30499.931     -16682.572      2360.9817     -4599.4132      417.44034      9.2159079      9.2160001      9.2160001      782.74998    
        52   0             -473.43962     -34797.755     -56706.477     -31498.156     -16188.633      1840.2056     -3898.2371      48.396817      9.2159079      9.2160001      9.2160001      782.74998    
        53   0             -473.4508      -35842.548     -59496.832     -32414.348     -15616.463      1959.8941     -3914.4961     -1522.9446      9.2159079      9.2160001      9.2160001      782.74998    
        54   0             -473.46087     -36616.379     -61687.893     -33183.044     -14978.201      1795.5034     -3355.76       -1961.1383      9.2159079      9.2160001      9.2160001      782.74998    
        55   0             -473.47091     -37206.75      -63495.091     -33982.104     -14143.056      1521.4772     -2767.2873     -1777.5511      9.2159079      9.2160001      9.2160001      782.74998    
        56   0             -473.47882     -37736.241     -64775.238     -34992.824     -13440.66       1183.1938     -2086.3362     -2478.2353      9.2159079      9.2160001      9.2160001      782.74998    
        57   0             -473.48569     -38245.068     -65682.693     -36135.366     -12917.145      1082.9218     -1414.3216     -2897.4685      9.2159079      9.2160001      9.2160001      782.74998    
        58   0             -473.49255     -38593.918     -65815.031     -37618.992     -12347.732      1993.3172     -2223.9299     -3129.3527      9.2159079      9.2160001      9.2160001      782.74998    
        59   0             -473.4999      -38967.797     -65841.469     -39201.659     -11860.263      1932.3293     -2137.0651     -3798.9457      9.2159079      9.2160001      9.2160001      782.74998    
        60   0             -473.50401     -39143.906     -65815.981     -40081.595     -11534.143      1310.5929     -1768.0776     -4890.3271      9.2159079      9.2160001      9.2160001      782.74998    
        61   0             -473.50604     -39247.34      -65773.799     -40725.322     -11242.898      1250.7682     -1922.7177     -5350.2698      9.2159079      9.2160001      9.2160001      782.74998    
        62   0             -473.50835     -39207.248     -65525.592     -41481.628     -10614.524      1768.5782     -2612.9419     -5058.2709      9.2159079      9.2160001      9.2160001      782.74998    
        63   0             -473.51124     -39020.654     -65045.691     -42251.953     -9764.3192      1588.0469     -2717.4078     -4918.2853      9.2159079      9.2160001      9.2160001      782.74998    
        64   0             -473.51457     -38778.712     -64607.362     -42867.596     -8861.179       662.04759     -1866.0839     -5014.9383      9.2159079      9.2160001      9.2160001      782.74998    
        65   0             -473.51831     -38689.453     -64494.134     -43633.339     -7940.886       473.39566     -1611.1514     -4591.6096      9.2159079      9.2160001      9.2160001      782.74998    
        66   0             -473.52342     -38935.047     -65075.738     -44602.838     -7126.566       1054.5851     -2002.2742     -3526.5018      9.2159079      9.2160001      9.2160001      782.74998    
        67   0             -473.52957     -39375.563     -66037.655     -45707.54      -6381.4949      1254.2878     -1982.0159     -3689.0016      9.2159079      9.2160001      9.2160001      782.74998    
        68   0             -473.53628     -39817.392     -67045.07      -46622.479     -5784.6272      806.52965     -1523.3496     -4663.702       9.2159079      9.2160001      9.2160001      782.74998    
        69   0             -473.54266     -40241.833     -68113.362     -47368.686     -5243.4509      729.77656     -1338.3792     -4266.7457      9.2159079      9.2160001      9.2160001      782.74998    
        70   0             -473.5498      -40787.435     -69403.766     -48152.685     -4805.8536      909.60983     -1192.3314     -3197.8304      9.2159079      9.2160001      9.2160001      782.74998    
        71   0             -473.55588     -41433.052     -70759.428     -48904.762     -4634.9653      686.90107     -593.6474      -2293.4699      9.2159079      9.2160001      9.2160001      782.74998    
        72   0             -473.55935     -41990.701     -71967.306     -49357.344     -4647.4529      346.84292      506.25087     -1556.3449      9.2159079      9.2160001      9.2160001      782.74998    
        73   0             -473.56134     -42356.699     -72935.166     -49494.305     -4640.6254      318.89257      1502.4224     -1192.4994      9.2159079      9.2160001      9.2160001      782.74998    
        74   0             -473.56381     -42376.634     -73377.321     -49319.328     -4433.2528      807.01467      1155.4081     -1416.7012      9.2159079      9.2160001      9.2160001      782.74998    
        75   0             -473.56527     -42341.635     -73565.41      -49145.418     -4314.0763      922.22443      929.75471     -1705.5811      9.2159079      9.2160001      9.2160001      782.74998    
        76   0             -473.56643     -42397.119     -73842.077     -49080.485     -4268.7936      863.01209      835.68561     -1879.3836      9.2159079      9.2160001      9.2160001      782.74998    
        77   0             -473.56799     -42697.062     -74513.852     -49200.22      -4377.1145      1168.8087      740.97442     -1393.4529      9.2159079      9.2160001      9.2160001      782.74998    
        78   0             -473.56909     -42952.544     -75045.974     -49284.463     -4527.1941      1158.5803      887.81514     -949.14903      9.2159079      9.2160001      9.2160001      782.74998    
        79   0             -473.57128     -43293.626     -75860.33      -49286.848     -4733.6983      506.65705      1229.0137     -389.54107      9.2159079      9.2160001      9.2160001      782.74998    
        80   0             -473.57465     -43585.297     -76612.846     -49284.063     -4858.9821      293.14774      1225.9096      94.295353      9.2159079      9.2160001      9.2160001      782.74998    
        81   0             -473.57569     -43673.245     -76825.859     -49323.748     -4870.1289      800.23138      776.06595      28.938378      9.2159079      9.2160001      9.2160001      782.74998    
        82   0             -473.57639     -43800.492     -77079.894     -49394.434     -4927.1491      1195.2684      476.55405      124.47523      9.2159079      9.2160001      9.2160001      782.74998    
        83   0             -473.57714     -43930.328     -77364.388     -49427.78      -4998.8155      1039.6209      731.70854      659.04195      9.2159079      9.2160001      9.2160001      782.74998    
        84   0             -473.5777      -44014.807     -77581.855     -49426.583     -5035.9838      893.8159       1093.0417      1056.4071      9.2159079      9.2160001      9.2160001      782.74998    
        85   0             -473.57807     -44039.609     -77679.172     -49420.404     -5019.2501      895.52797      1202.5821      1058.4484      9.2159079      9.2160001      9.2160001      782.74998    
        86   0             -473.57842     -44051.293     -77755.386     -49415.959     -4982.5358      783.05378      1199.8272      1147.4678      9.2159079      9.2160001      9.2160001      782.74998    
        87   0             -473.57875     -44075.002     -77861.989     -49411.911     -4951.1064      532.59697      998.64302      1257.9438      9.2159079      9.2160001      9.2160001      782.74998    
        88   0             -473.57906     -44109.195     -78054.611     -49372.123     -4900.8519      341.43735      670.62192      990.68253      9.2159079      9.2160001      9.2160001      782.74998    
        89   0             -473.57923     -44140.017     -78234.412     -49314.644     -4870.9958      360.75061      385.96099      602.04034      9.2159079      9.2160001      9.2160001      782.74998    
        90   0             -473.57935     -44166.107     -78372.436     -49275.541     -4850.3445      292.60996      291.72075      562.59016      9.2159079      9.2160001      9.2160001      782.74998    
        91   0             -473.57949     -44210.576     -78547.29      -49256.982     -4827.4559      119.4942       153.80998      618.74189      9.2159079      9.2160001      9.2160001      782.74998    
        92   0             -473.57959     -44236.265     -78617.242     -49274.504     -4817.0493      4.6522257      44.228283      507.9723       9.2159079      9.2160001      9.2160001      782.74998    
        93   0             -473.57966     -44238.846     -78627.037     -49285.037     -4804.4626     -61.768752     -56.188374      353.04151      9.2159079      9.2160001      9.2160001      782.74998    
        94   0             -473.57973     -44226.922     -78631.871     -49261.844     -4787.0519     -114.37834     -154.6243       298.86088      9.2159079      9.2160001      9.2160001      782.74998    
        95   0             -473.57978     -44231.889     -78675.62      -49236.145     -4783.9017     -161.8105      -204.65956      263.38911      9.2159079      9.2160001      9.2160001      782.74998    
        96   0             -473.57983     -44275.814     -78782.876     -49235.803     -4808.7617     -193.57305     -270.95469      135.75186      9.2159079      9.2160001      9.2160001      782.74998    
        97   0             -473.57991     -44370.23      -78954.69      -49283.097     -4872.9035     -209.89843     -331.17594     -28.656736      9.2159079      9.2160001      9.2160001      782.74998    
        98   0             -473.58001     -44478.489     -79094.389     -49368.406     -4972.6721     -209.41997     -372.78767     -33.854986      9.2159079      9.2160001      9.2160001      782.74998    
        99   0             -473.58028     -44688.242     -79189.099     -49603.416     -5272.2095     -270.82784     -371.8046      -25.866168      9.2159079      9.2160001      9.2160001      782.74998    
       100   0             -473.58086     -44971.365     -79210.196     -49958.799     -5745.0993     -359.34819     -347.84145     -207.39965      9.2159079      9.2160001      9.2160001      782.74998    
       101   0             -473.58162     -45078.302     -79162.087     -50091.445     -5981.3736     -361.33445     -368.53766     -665.31852      9.2159079      9.2160001      9.2160001      782.74998    
       102   0             -473.58283     -45425.481     -79177.64      -50506.243     -6592.559      -303.24444     -466.76593     -821.71685      9.2159079      9.2160001      9.2160001      782.74998    
       103   0             -473.58481     -45992.307     -79410.892     -51175.861     -7390.1693     -162.43128     -547.30242     -126.52981      9.2159079      9.2160001      9.2160001      782.74998    
       104   0             -473.58566     -46319.179     -79658.181     -51559.488     -7739.8691     -211.79657     -367.30119     -68.614255      9.2159079      9.2160001      9.2160001      782.74998    
       105   0             -473.58618     -46657.759     -79939.884     -51928.162     -8105.2289     -254.91682     -214.03091     -249.16694      9.2159079      9.2160001      9.2160001      782.74998    
       106   0             -473.58696     -47009.713     -80205.321     -52248.585     -8575.2334     -344.32806     -116.08475     -578.23195      9.2159079      9.2160001      9.2160001      782.74998    
       107   0             -473.58816     -47567.472     -80452.528     -52800.669     -9449.2176     -244.24968     -42.475666     -474.13741      9.2159079      9.2160001      9.2160001      782.74998    
       108   0             -473.58982     -48315.627     -80552.566     -53701.426     -10692.89       211.66935      10.230291     -235.6677       9.2159079      9.2160001      9.2160001      782.74998    
       109   0             -473.59171     -49253.829     -80627.906     -54956.013     -12177.568      477.53719      25.144378     -405.66266      9.2159079      9.2160001      9.2160001      782.74998    
       110   0             -473.59371     -50229.406     -80800.548     -56233.967     -13653.705      420.66947      154.08879     -523.5884       9.2159079      9.2160001      9.2160001      782.74998    
       111   0             -473.5948      -50498.034     -81031.842     -56483.395     -13978.867      234.92551      315.32703     -347.69421      9.2159079      9.2160001      9.2160001      782.74998    
       112   0             -473.59554     -50887.493     -81487.2       -56782.128     -14393.152      88.298545      442.22761     -234.80835      9.2159079      9.2160001      9.2160001      782.74998    
       113   0             -473.59632     -51296.69      -81877.874     -57143.659     -14868.538      148.73597      426.11937     -424.06975      9.2159079      9.2160001      9.2160001      782.74998    
       114   0             -473.59687     -51582.148     -82035.468     -57461.367     -15249.608      295.24733      253.40596     -598.63789      9.2159079      9.2160001      9.2160001      782.74998    
       115   0             -473.59755     -51985.919     -82081.892     -57977.339     -15898.526      261.06103      5.8204798     -695.86404      9.2159079      9.2160001      9.2160001      782.74998    
       116   0             -473.59844     -52608.562     -82239.213     -58703.966     -16882.508     -27.292507     -0.68513627    -1021.8789      9.2159079      9.2160001      9.2160001      782.74998    
       117   0             -473.59978     -53556.594     -82814.249     -59637.499     -18218.033     -250.94392      23.833991     -1448.8206      9.2159079      9.2160001      9.2160001      782.74998    
       118   0             -473.6009      -54414.79      -83577.305     -60379.629     -19287.436     -173.27813     -170.84587     -1693.0385      9.2159079      9.2160001      9.2160001      782.74998    
       119   0             -473.60169     -55522.65      -84566.32      -61332.787     -20668.843      13.944023     -438.46898     -1968.3694      9.2159079      9.2160001      9.2160001      782.74998    
       120   0             -473.60218     -55936.572     -84832.95      -61740.107     -21236.658     -85.138138     -340.79584     -2050.3744      9.2159079      9.2160001      9.2160001      782.74998    
       121   0             -473.60244     -56135.484     -84831.986     -62004.569     -21569.899     -228.87268     -155.95885     -1997.8778      9.2159079      9.2160001      9.2160001      782.74998    
       122   0             -473.6026      -56284.611     -84737.996     -62253.417     -21862.42      -206.17249     -88.847774     -1914.2011      9.2159079      9.2160001      9.2160001      782.74998    
       123   0             -473.6027      -56404.287     -84692.563     -62447.622     -22072.678     -89.433722     -104.76288     -1874.3172      9.2159079      9.2160001      9.2160001      782.74998    
       124   0             -473.60279     -56577.29      -84747.826     -62670.768     -22313.277      4.4930791     -111.5446      -1828.8295      9.2159079      9.2160001      9.2160001      782.74998    
       125   0             -473.60287     -56775.45      -84855.625     -62892.83      -22577.894      4.5917146     -49.102011     -1820.4597      9.2159079      9.2160001      9.2160001      782.74998    
       126   0             -473.60292     -56916.675     -84941.646     -63032.515     -22775.865     -26.391543      16.856629     -1850.8596      9.2159079      9.2160001      9.2160001      782.74998    
       127   0             -473.60299     -57132.824     -85080.926     -63225.269     -23092.276     -37.936065      66.99507      -1892.9186      9.2159079      9.2160001      9.2160001      782.74998    
       128   0             -473.60307     -57406.714     -85244.35      -63480.01      -23495.781     -25.927005      85.89196      -1932.1586      9.2159079      9.2160001      9.2160001      782.74998    
       129   0             -473.60313     -57643.44      -85380.952     -63718.413     -23830.957      13.943644      41.666384     -1977.3983      9.2159079      9.2160001      9.2160001      782.74998    
       130   0             -473.60316     -57802.687     -85470.554     -63893.413     -24044.094      47.461667     -13.764731     -2018.6207      9.2159079      9.2160001      9.2160001      782.74998    
       131   0             -473.60319     -57926.897     -85527.024     -64040.495     -24213.172      36.319289     -10.390778     -2036.7759      9.2159079      9.2160001      9.2160001      782.74998    
       132   0             -473.6032      -57982.833     -85539.071     -64111.022     -24298.407      8.6817346      20.193705     -2012.826       9.2159079      9.2160001      9.2160001      782.74998    
       133   0             -473.60321     -58022.966     -85532.94      -64165.774     -24370.184     -4.4020465      33.22153      -1981.6819      9.2159079      9.2160001      9.2160001      782.74998    
       134   0             -473.60321     -58058.987     -85526.698     -64215.533     -24434.729      8.4337508      23.35124      -1968.7314      9.2159079      9.2160001      9.2160001      782.74998    
       135   0             -473.60321     -58090.149     -85534.197     -64255.041     -24481.209      28.079319      6.1100567     -1966.4745      9.2159079      9.2160001      9.2160001      782.74998    
       136   0             -473.60322     -58134.508     -85560.254     -64305.321     -24537.95       27.86108       9.2800183     -1968.9691      9.2159079      9.2160001      9.2160001      782.74998    
       137   0             -473.60322     -58197.575     -85602.033     -64371.709     -24618.982      7.9890316      34.410212     -1980.1169      9.2159079      9.2160001      9.2160001      782.74998    
       138   0             -473.60323     -58247.997     -85632.564     -64420.234     -24691.195      6.2512727      31.826492     -1991.1026      9.2159079      9.2160001      9.2160001      782.74998    
       139   0             -473.60323     -58306.682     -85664.508     -64472.476     -24783.063      14.162028      12.283655     -1999.876       9.2159079      9.2160001      9.2160001      782.74998    
       140   0             -473.60323     -58344.433     -85682.579     -64508.472     -24842.249      10.924299      6.9904272     -2002.4544      9.2159079      9.2160001      9.2160001      782.74998    
       141   0             -473.60323     -58371.39      -85695.505     -64538.487     -24880.178      1.431721       5.9009113     -2002.2548      9.2159079      9.2160001      9.2160001      782.74998    
       142   0             -473.60323     -58398.823     -85709.753     -64571.345     -24915.371     -5.5511369      1.6095503     -2004.3288      9.2159079      9.2160001      9.2160001      782.74998    
       143   0             -473.60323     -58416.695     -85717.426     -64593.532     -24939.126     -3.9441821     -5.9442684     -2007.4576      9.2159079      9.2160001      9.2160001      782.74998    
       144   0             -473.60323     -58426.985     -85720.603     -64605.773     -24954.578     -4.7565958     -8.3509301     -2005.1357      9.2159079      9.2160001      9.2160001      782.74998    
       145   0             -473.60324     -58434.531     -85721.486     -64614.121     -24967.985     -6.4925358     -7.6874489     -1999.8         9.2159079      9.2160001      9.2160001      782.74998    
       146   0             -473.60324     -58439.7       -85722.18      -64619.541     -24977.381     -4.1285279     -8.893611      -1999.143       9.2159079      9.2160001      9.2160001      782.74998    
       147   0             -473.60324     -58449.525     -85726.818     -64629.529     -24992.227     -2.9361586     -6.7279129     -2002.992       9.2159079      9.2160001      9.2160001      782.74998    
       148   0             -473.60324     -58466.093     -85737.833     -64645.795     -25014.65      -4.1820826      1.0594189     -2009.6402      9.2159079      9.2160001      9.2160001      782.74998    
       149   0             -473.60324     -58480.657     -85749.65      -64658.996     -25033.325     -2.2408045      3.9581886     -2013.6519      9.2159079      9.2160001      9.2160001      782.74998    
       150   0             -473.60324     -58497.304     -85764.271     -64672.822     -25054.82       3.3706001      1.3630684     -2017.9873      9.2159079      9.2160001      9.2160001      782.74998    
       151   0             -473.60324     -58504.178     -85769.794     -64678.137     -25064.603      3.6925847      1.0327066     -2020.4454      9.2159079      9.2160001      9.2160001      782.74998    
       152   0             -473.60324     -58507.691     -85771.124     -64681.088     -25070.862      0.082163861    3.4050379     -2020.5056      9.2159079      9.2160001      9.2160001      782.74998    
       153   0             -473.60324     -58510.267     -85771.178     -64684.088     -25075.534     -1.2781688      3.2239685     -2018.9984      9.2159079      9.2160001      9.2160001      782.74998    
       154   0             -473.60324     -58512.999     -85771.438     -64687.862     -25079.697     -0.011201449    0.31620712    -2018.3117      9.2159079      9.2160001      9.2160001      782.74998    
       155   0             -473.60324     -58515.183     -85772.129     -64690.898     -25082.523      0.6887067     -1.2640318     -2019.1689      9.2159079      9.2160001      9.2160001      782.74998    
       156   0             -473.60324     -58517.308     -85773.473     -64693.425     -25085.027      0.28826909    -1.0721388     -2020.2995      9.2159079      9.2160001      9.2160001      782.74998    
       157   0             -473.60324     -58519.185     -85774.939     -64695.225     -25087.391     -0.37826071    -0.06571599    -2020.7566      9.2159079      9.2160001      9.2160001      782.74998    
       158   0             -473.60324     -58521.098     -85776.565     -64696.528     -25090.202     -0.23546194     0.68163766    -2020.5456      9.2159079      9.2160001      9.2160001      782.74998    
       159   0             -473.60324     -58523.556     -85778.586     -64698.027     -25094.056      0.66274152     0.78245975    -2020.8205      9.2159079      9.2160001      9.2160001      782.74998    
       160   0             -473.60324     -58525.725     -85780.037     -64699.832     -25097.305      0.72457594     1.0871751     -2021.9817      9.2159079      9.2160001      9.2160001      782.74998    
       161   0             -473.60324     -58527.95      -85781.365     -64702.248     -25100.237      0.66189996     1.1371965     -2022.8487      9.2159079      9.2160001      9.2160001      782.74998    
       162   0             -473.60324     -58530.067     -85782.541     -64704.759     -25102.903      0.63122957     0.81146717    -2023.1758      9.2159079      9.2160001      9.2160001      782.74998    
       163   0             -473.60324     -58531.28      -85783.087     -64706.18      -25104.572      0.28435774     0.68882124    -2023.2808      9.2159079      9.2160001      9.2160001      782.74998    
       164   0             -473.60324     -58532.3       -85783.461     -64707.238     -25106.2       -0.10880674     0.38918104    -2023.3325      9.2159079      9.2160001      9.2160001      782.74998    
       165   0             -473.60324     -58533.023     -85783.724     -64707.912     -25107.433     -0.17433633    -0.15912032    -2023.1501      9.2159079      9.2160001      9.2160001      782.74998    
       166   0             -473.60324     -58533.545     -85783.973     -64708.421     -25108.242     -0.065103716   -0.4682851     -2022.9224      9.2159079      9.2160001      9.2160001      782.74998    
       167   0             -473.60324     -58534.381     -85784.453     -64709.309     -25109.381     -0.02695004    -0.53665127    -2022.9067      9.2159079      9.2160001      9.2160001      782.74998    
       168   0             -473.60324     -58535.479     -85785.117     -64710.491     -25110.828     -0.25233246    -0.23752496    -2023.3461      9.2159079      9.2160001      9.2160001      782.74998    
       169   0             -473.60324     -58536.455     -85785.672     -64711.52      -25112.173     -0.27686426    -0.023207591   -2023.7113      9.2159079      9.2160001      9.2160001      782.74998    
       170   0             -473.60324     -58537.161     -85786.056     -64712.2       -25113.228     -0.023694838   -0.1105506     -2023.6532      9.2159079      9.2160001      9.2160001      782.74998    
       171   0             -473.60324     -58537.579     -85786.282     -64712.567     -25113.889      0.062750765   -0.074131328   -2023.5902      9.2159079      9.2160001      9.2160001      782.74998    
       172   0             -473.60324     -58537.884     -85786.428     -64712.852     -25114.371      0.033151985    0.056032155   -2023.6515      9.2159079      9.2160001      9.2160001      782.74998    
       173   0             -473.60324     -58538.153     -85786.574     -64713.136     -25114.749     -0.02646471     0.10626847    -2023.6948      9.2159079      9.2160001      9.2160001      782.74998    
       174   0             -473.60324     -58538.471     -85786.744     -64713.504     -25115.165     -0.0663297      0.050989917   -2023.6782      9.2159079      9.2160001      9.2160001      782.74998    
       175   0             -473.60324     -58538.675     -85786.825     -64713.755     -25115.445     -0.030395786   -0.037833487   -2023.6591      9.2159079      9.2160001      9.2160001      782.74998    
       176   0             -473.60324     -58538.839     -85786.869     -64713.954     -25115.694     -0.013518274   -0.076428561   -2023.6606      9.2159079      9.2160001      9.2160001      782.74998    
       177   0             -473.60324     -58539.017     -85786.898     -64714.164     -25115.988     -0.035070219   -0.076977211   -2023.6678      9.2159079      9.2160001      9.2160001      782.74998    
       178   0             -473.60324     -58539.232     -85786.968     -64714.401     -25116.328     -0.049321398   -0.091087336   -2023.6501      9.2159079      9.2160001      9.2160001      782.74998    
       179   0             -473.60324     -58539.513     -85787.118     -64714.692     -25116.728     -0.063043756   -0.074488016   -2023.638       9.2159079      9.2160001      9.2160001      782.74998    
       180   0             -473.60324     -58539.799     -85787.297     -64714.985     -25117.117     -0.037692794   -0.041556042   -2023.6754      9.2159079      9.2160001      9.2160001      782.74998    
       181   0             -473.60324     -58540.018     -85787.438     -64715.205     -25117.41       0.0068908486  -0.013517279   -2023.7366      9.2159079      9.2160001      9.2160001      782.74998    
       182   0             -473.60324     -58540.139     -85787.507     -64715.329     -25117.582      0.029252855    0.0038176851  -2023.7545      9.2159079      9.2160001      9.2160001      782.74998    
       183   0             -473.60324     -58540.208     -85787.532     -64715.401     -25117.69       0.027913102    0.018711323   -2023.7305      9.2159079      9.2160001      9.2160001      782.74998    
       184   0             -473.60324     -58540.246     -85787.539     -64715.444     -25117.755      0.014392066    0.041273378   -2023.7248      9.2159079      9.2160001      9.2160001      782.74998    
       185   0             -473.60324     -58540.279     -85787.547     -64715.483     -25117.806      0.01634919     0.044389061   -2023.737       9.2159079      9.2160001      9.2160001      782.74998    
       186   0             -473.60324     -58540.326     -85787.567     -64715.539     -25117.873      0.028955324    0.023374262   -2023.743       9.2159079      9.2160001      9.2160001      782.74998    
       187   0             -473.60324     -58540.374     -85787.591     -64715.592     -25117.938      0.024667507    0.011230223   -2023.7389      9.2159079      9.2160001      9.2160001      782.74998    
       188   0             -473.60324     -58540.429     -85787.624     -64715.649     -25118.015      0.0038879506   0.009217043   -2023.7395      9.2159079      9.2160001      9.2160001      782.74998    
       189   0             -473.60324     -58540.491     -85787.66      -64715.708     -25118.104     -0.015172839    0.0069128239  -2023.7551      9.2159079      9.2160001      9.2160001      782.74998    
       190   0             -473.60324     -58540.543     -85787.694     -64715.755     -25118.18      -0.010669964   -0.0063085181  -2023.7697      9.2159079      9.2160001      9.2160001      782.74998    
       191   0             -473.60324     -58540.588     -85787.724     -64715.795     -25118.244      0.004886975   -0.023650566   -2023.7728      9.2159079      9.2160001      9.2160001      782.74998    
       192   0             -473.60324     -58540.641     -85787.76      -64715.845     -25118.318      0.0018639468  -0.022143608   -2023.7814      9.2159079      9.2160001      9.2160001      782.74998    
       193   0             -473.60324     -58540.671     -85787.78      -64715.874     -25118.36      -0.0075749909  -0.011565266   -2023.7952      9.2159079      9.2160001      9.2160001      782.74998    
       194   0             -473.60324     -58540.684     -85787.787     -64715.888     -25118.378     -0.0094333374  -0.0069803643  -2023.8018      9.2159079      9.2160001      9.2160001      782.74998    
       195   0             -473.60324     -58540.694     -85787.791     -64715.899     -25118.392     -0.0078842248  -0.0043742859  -2023.8026      9.2159079      9.2160001      9.2160001      782.74998    
       196   0             -473.60324     -58540.701     -85787.795     -64715.906     -25118.402     -0.0046865827  -0.0050226371  -2023.8001      9.2159079      9.2160001      9.2160001      782.74998    
       197   0             -473.60324     -58540.707     -85787.798     -64715.912     -25118.411     -0.0034097248  -0.0057743864  -2023.7993      9.2159079      9.2160001      9.2160001      782.74998    
       198   0             -473.60324     -58540.717     -85787.804     -64715.922     -25118.425     -0.0025780982  -0.0057102607  -2023.8014      9.2159079      9.2160001      9.2160001      782.74998    
       199   0             -473.60324     -58540.728     -85787.81      -64715.933     -25118.442     -0.0021423484  -0.0037478313  -2023.8033      9.2159079      9.2160001      9.2160001      782.74998    
       200   0             -473.60324     -58540.737     -85787.815     -64715.943     -25118.454     -0.0035921537  -0.00033080125 -2023.803       9.2159079      9.2160001      9.2160001      782.74998    
       201   0             -473.60324     -58540.738     -85787.815     -64715.943     -25118.455     -0.002168732   -0.0019213822  -2023.8048      9.2159079      9.2160001      9.2160001      782.74998    
       202   0             -473.60324     -58540.739     -85787.817     -64715.944     -25118.456     -0.0010044798  -0.0030342196  -2023.8071      9.2159079      9.2160001      9.2160001      782.74998    
       203   0             -473.60324     -58540.741     -85787.819     -64715.945     -25118.459     -0.00076444458 -0.0025203956  -2023.8084      9.2159079      9.2160001      9.2160001      782.74998    
       204   0             -473.60324     -58540.744     -85787.823     -64715.947     -25118.463     -0.0016052151  -0.00066958729 -2023.8096      9.2159079      9.2160001      9.2160001      782.74998    
       205   0             -473.60324     -58540.748     -85787.827     -64715.95      -25118.469     -0.0017465985   0.00015382901 -2023.8115      9.2159079      9.2160001      9.2160001      782.74998    
       206   0             -473.60324     -58540.754     -85787.831     -64715.955     -25118.477     -0.00053751711 -0.00035351097 -2023.8134      9.2159079      9.2160001      9.2160001      782.74998    
       207   0             -473.60324     -58540.764     -85787.836     -64715.965     -25118.491      0.0015362116  -0.00078085495 -2023.8136      9.2159079      9.2160001      9.2160001      782.74998    
       208   0             -473.60324     -58540.78      -85787.843     -64715.983     -25118.515      0.0035122026   0.00030855128 -2023.8136      9.2159079      9.2160001      9.2160001      782.74998    
       209   0             -473.60324     -58540.791     -85787.848     -64715.995     -25118.53       0.0027926219   0.0023115364  -2023.816       9.2159079      9.2160001      9.2160001      782.74998    
       210   0             -473.60324     -58540.794     -85787.85      -64715.998     -25118.535      0.0020493748   0.0032067856  -2023.817       9.2159079      9.2160001      9.2160001      782.74998    
       211   0             -473.60324     -58540.797     -85787.852     -64716         -25118.538      0.001906131    0.0032554382  -2023.8174      9.2159079      9.2160001      9.2160001      782.74998    
       212   0             -473.60324     -58540.798     -85787.854     -64716.001     -25118.54       0.0022170379   0.0026599562  -2023.8176      9.2159079      9.2160001      9.2160001      782.74998    
       213   0             -473.60324     -58540.799     -85787.855     -64716.001     -25118.541      0.0024547467   0.0020898278  -2023.8183      9.2159079      9.2160001      9.2160001      782.74998    
       214   0             -473.60324     -58540.8       -85787.856     -64716.002     -25118.543      0.0019569545   0.0020238243  -2023.8192      9.2159079      9.2160001      9.2160001      782.74998    
       215   0             -473.60324     -58540.801     -85787.856     -64716.003     -25118.544      0.0010933029   0.0020544663  -2023.8193      9.2159079      9.2160001      9.2160001      782.74998    
       216   0             -473.60324     -58540.802     -85787.857     -64716.005     -25118.546      0.0006329874   0.0014358737  -2023.8192      9.2159079      9.2160001      9.2160001      782.74998    
       217   0             -473.60324     -58540.804     -85787.857     -64716.006     -25118.548      0.00058361778  0.00040474391 -2023.8191      9.2159079      9.2160001      9.2160001      782.74998    
       218   0             -473.60324     -58540.804     -85787.857     -64716.007     -25118.549      0.00037163503  0.0001276667  -2023.8189      9.2159079      9.2160001      9.2160001      782.74998    
       219   0             -473.60324     -58540.804     -85787.857     -64716.007     -25118.549      3.2747495e-05  0.00013702362 -2023.8186      9.2159079      9.2160001      9.2160001      782.74998    
       220   0             -473.60324     -58540.805     -85787.857     -64716.007     -25118.549     -6.5396142e-05  5.626301e-05  -2023.8184      9.2159079      9.2160001      9.2160001      782.74998    
       221   0             -473.60324     -58540.805     -85787.857     -64716.008     -25118.549     -5.0628284e-05 -4.4496098e-05 -2023.8183      9.2159079      9.2160001      9.2160001      782.74998    
       222   0             -473.60324     -58540.805     -85787.857     -64716.008     -25118.549     -4.0823329e-05 -8.9821434e-05 -2023.8184      9.2159079      9.2160001      9.2160001      782.74998    
       223   0             -473.60324     -58540.805     -85787.857     -64716.008     -25118.55      -5.5725047e-05 -0.00010339965 -2023.8184      9.2159079      9.2160001      9.2160001      782.74998    
       224   0             -473.60324     -58540.805     -85787.857     -64716.008     -25118.55      -8.1714707e-05 -0.00010622753 -2023.8183      9.2159079      9.2160001      9.2160001      782.74998    
       225   0             -473.60324     -58540.805     -85787.857     -64716.008     -25118.55      -8.8362633e-05 -0.00010226039 -2023.8183      9.2159079      9.2160001      9.2160001      782.74998    
       226   0             -473.60324     -58540.805     -85787.857     -64716.008     -25118.55      -9.2979303e-05 -6.6768861e-05 -2023.8182      9.2159079      9.2160001      9.2160001      782.74998    
       227   0             -473.60324     -58540.805     -85787.857     -64716.008     -25118.55      -6.8250543e-05 -6.6325139e-05 -2023.8182      9.2159079      9.2160001      9.2160001      782.74998    
       228   0             -473.60324     -58540.805     -85787.857     -64716.008     -25118.55      -1.4898721e-05 -8.599219e-05  -2023.8181      9.2159079      9.2160001      9.2160001      782.74998    
       229   0             -473.60324     -58540.805     -85787.857     -64716.009     -25118.55      -2.6981681e-05 -5.2186544e-05 -2023.8181      9.2159079      9.2160001      9.2160001      782.74998    
       230   0             -473.60324     -58540.805     -85787.857     -64716.009     -25118.551     -4.8578908e-05 -1.4689225e-05 -2023.8181      9.2159079      9.2160001      9.2160001      782.74998    
       231   0             -473.60324     -58540.805     -85787.857     -64716.009     -25118.551     -3.6739702e-05 -1.3126297e-05 -2023.818       9.2159079      9.2160001      9.2160001      782.74998    
       232   0             -473.60324     -58540.805     -85787.857     -64716.009     -25118.551     -1.5926777e-05 -2.5289423e-05 -2023.818       9.2159079      9.2160001      9.2160001      782.74998    
       233   0             -473.60324     -58540.805     -85787.857     -64716.009     -25118.551     -8.4387218e-06 -2.8261744e-05 -2023.818       9.2159079      9.2160001      9.2160001      782.74998    
       234   0             -473.60324     -58540.805     -85787.857     -64716.009     -25118.551     -1.6680788e-05 -1.7444294e-05 -2023.818       9.2159079      9.2160001      9.2160001      782.74998    
       235   0             -473.60324     -58540.805     -85787.857     -64716.009     -25118.551     -1.8700519e-05 -1.011123e-05  -2023.818       9.2159079      9.2160001      9.2160001      782.74998    
       236   0             -473.60324     -58540.805     -85787.857     -64716.009     -25118.551     -1.0667366e-05 -1.1433848e-05 -2023.818       9.2159079      9.2160001      9.2160001      782.74998    
       237   0             -473.60324     -58540.805     -85787.857     -64716.009     -25118.551     -3.6410691e-06 -1.2395967e-05 -2023.818       9.2159079      9.2160001      9.2160001      782.74998    
       238   0             -473.60324     -58540.805     -85787.857     -64716.009     -25118.551     -2.4575569e-06 -8.2702409e-06 -2023.818       9.2159079      9.2160001      9.2160001      782.74998    
       239   0             -473.60324     -58540.805     -85787.857     -64716.009     -25118.551     -2.7928861e-06 -3.4496493e-06 -2023.818       9.2159079      9.2160001      9.2160001      782.74998    
       240   0             -473.60324     -58540.805     -85787.857     -64716.009     -25118.551     -2.0149363e-06  1.1951353e-07 -2023.818       9.2159079      9.2160001      9.2160001      782.74998    
       241   0             -473.60324     -58540.805     -85787.857     -64716.009     -25118.551     -1.1079457e-06  3.1408123e-07 -2023.818       9.2159079      9.2160001      9.2160001      782.74998    
       242   0             -473.60324     -58540.805     -85787.857     -64716.009     -25118.551     -2.1230395e-07 -3.3613505e-07 -2023.818       9.2159079      9.2160001      9.2160001      782.74998    
       243   0             -473.60324     -58540.805     -85787.857     -64716.009     -25118.551      4.8886163e-07 -8.0880064e-07 -2023.818       9.2159079      9.2160001      9.2160001      782.74998    
       244   0             -473.60324     -58540.805     -85787.857     -64716.009     -25118.551      2.5900064e-07 -4.2772001e-07 -2023.818       9.2159079      9.2160001      9.2160001      782.74998    
       245   0             -473.60324     -58540.805     -85787.857     -64716.009     -25118.551     -2.0071869e-07  1.5593914e-07 -2023.818       9.2159079      9.2160001      9.2160001      782.74998    
       246   0             -473.60324     -58540.805     -85787.857     -64716.009     -25118.551     -1.7821588e-07  1.6168898e-07 -2023.818       9.2159079      9.2160001      9.2160001      782.74998    
       247   0             -473.60324     -58540.805     -85787.857     -64716.009     -25118.551      7.3044979e-08 -7.8250863e-08 -2023.818       9.2159079      9.2160001      9.2160001      782.74998    
       248   0             -473.60324     -58540.805     -85787.857     -64716.009     -25118.551      1.0715655e-07 -1.1404363e-07 -2023.818       9.2159079      9.2160001      9.2160001      782.74998    
       249   0             -473.60324     -58540.805     -85787.857     -64716.009     -25118.551      3.0530117e-08 -3.7151096e-08 -2023.818       9.2159079      9.2160001      9.2160001      782.74998    
       250   0             -473.60324     -58540.805     -85787.857     -64716.009     -25118.551      3.4852715e-09  1.6802754e-09 -2023.818       9.2159079      9.2160001      9.2160001      782.74998    
       251   0             -473.60324     -58540.805     -85787.857     -64716.009     -25118.551     -4.848586e-09   1.2659219e-08 -2023.818       9.2159079      9.2160001      9.2160001      782.74998    
       252   0             -473.60324     -58540.805     -85787.857     -64716.009     -25118.551     -6.297953e-09   1.0345838e-08 -2023.818       9.2159079      9.2160001      9.2160001      782.74998    
       253   0             -473.60324     -58540.805     -85787.857     -64716.009     -25118.551     -3.3000055e-10  3.3410682e-09 -2023.818       9.2159079      9.2160001      9.2160001      782.74998    
       254   0             -473.60324     -58540.805     -85787.857     -64716.009     -25118.551      2.7420557e-09  2.673e-10     -2023.818       9.2159079      9.2160001      9.2160001      782.74998    
       255   0             -473.60324     -58540.805     -85787.857     -64716.009     -25118.551      2.1633477e-09 -2.3540114e-10 -2023.818       9.2159079      9.2160001      9.2160001      782.74998    
       256   0             -473.60324     -58540.805     -85787.857     -64716.009     -25118.551      6.2431251e-10  7.7706488e-10 -2023.818       9.2159079      9.2160001      9.2160001      782.74998    
Loop time of 0.416783 on 1 procs for 247 steps with 64 atoms

99.0% CPU use with 1 MPI tasks x no OpenMP threads

Minimization stats:
  Stopping criterion = force tolerance
  Energy initial, next-to-last, final = 
     -472.767999876653  -473.603236569416  -473.603236569417
  Force two-norm initial, final = 0.0001227032 5.7948666e-13
  Force max component initial, final = 2.3274934e-05 1.0769163e-13
  Final line search alpha, max atom move = 1 1.0769163e-13
  Iterations, force evaluations = 247 429

MPI task timing breakdown:
Section |  min time  |  avg time  |  max time  |%varavg| %total
---------------------------------------------------------------
Pair    | 0.41084    | 0.41084    | 0.41084    |   0.0 | 98.57
Neigh   | 0          | 0          | 0          |   0.0 |  0.00
Comm    | 0.0013585  | 0.0013585  | 0.0013585  |   0.0 |  0.33
Output  | 0.0032512  | 0.0032512  | 0.0032512  |   0.0 |  0.78
Modify  | 0          | 0          | 0          |   0.0 |  0.00
Other   |            | 0.001337   |            |       |  0.32

Nlocal:             64 ave          64 max          64 min
Histogram: 1 0 0 0 0 0 0 0 0 0
Nghost:            665 ave         665 max         665 min
Histogram: 1 0 0 0 0 0 0 0 0 0
Neighs:           2560 ave        2560 max        2560 min
Histogram: 1 0 0 0 0 0 0 0 0 0
FullNghs:         5120 ave        5120 max        5120 min
Histogram: 1 0 0 0 0 0 0 0 0 0

Total # of neighbors = 5120
Ave neighs/atom = 80
Neighbor list builds = 0
Dangerous builds = 0
Reading restart file ...
  restart file = 23 Jun 2022, LAMMPS = 23 Jun 2022
  restoring atom style atomic from restart
  triclinic box = (-4.608 -4.608 -4.608) to (4.608 4.608 4.608) with tilt (0 0 0)
  1 by 1 by 1 MPI processor grid
  pair style meam stores no restart info
  64 atoms
  read_restart CPU = 0.000 seconds
Reading MEAM library file library_ZrN.meam with DATE: 2015-02-12
Changing box ...
  triclinic box = (-4.608 -4.608 -4.608) to (4.6080922 4.608 4.608) with tilt (0 0 0)
  triclinic box = (-4.608 -4.608 -4.608) to (4.6080922 4.608 4.608) with tilt (0 0 0)
  triclinic box = (-4.608 -4.608 -4.608) to (4.6080922 4.608 4.608) with tilt (0 0 0)
Neighbor list info ...
  update every 1 steps, delay 0 steps, check yes
  max neighbors/atom: 2000, page size: 100000
  master list distance cutoff = 6.26
  ghost atom cutoff = 6.26
  2 neighbor lists, perpetual/occasional/extra = 2 0 0
  (1) pair meam, perpetual
      attributes: full, newton on
      pair build: full/nsq
      stencil: none
      bin: none
  (2) pair meam, perpetual, half/full from (1)
      attributes: half, newton on
      pair build: halffull/newton
      stencil: none
      bin: none
Setting up cg style minimization ...
  Unit style    : metal
  Current step  : 9
Per MPI rank memory allocation (min/avg/max) = 9.929 | 9.929 | 9.929 Mbytes
   Step          Temp          PotEng         Press           Pxx            Pyy            Pzz            Pxy            Pxz            Pyz             Lx             Ly             Lz           Volume    
         9   0             -472.768       -21.530559     -57.770744     -3.4104669     -3.4104669     -1.0796724e-07  2.3979052e-08 -2.2034764e-07  9.2160922      9.2160001      9.2160001      782.76563    
        10   0             -472.768       -21.530561     -57.770745     -3.4104684     -3.4104684     -1.8304828e-08  2.6740099e-08 -1.8952839e-08  9.2160922      9.2160001      9.2160001      782.76563    
        11   0             -472.768       -21.530561     -57.770746     -3.4104686     -3.4104686      1.8580616e-09 -3.3931782e-09 -1.4853703e-09  9.2160922      9.2160001      9.2160001      782.76563    
        12   0             -472.768       -21.530561     -57.770746     -3.4104686     -3.4104686     -1.5673e-09    -3.087847e-09   3.4505195e-10  9.2160922      9.2160001      9.2160001      782.76563    
        13   0             -472.768       -21.530561     -57.770746     -3.4104686     -3.4104686      4.4535086e-10 -5.2352039e-09 -1.7482053e-09  9.2160922      9.2160001      9.2160001      782.76563    
        14   0             -472.768       -21.530562     -57.770747     -3.4104698     -3.4104694      2.1198741e-08 -7.8707517e-08 -2.3500166e-08  9.2160922      9.2160001      9.2160001      782.76563    
        15   0             -472.768       -21.530744     -57.770968     -3.410661      -3.4106037      2.3710805e-07 -1.0347763e-05  8.0584895e-07  9.2160922      9.2160001      9.2160001      782.76563    
        16   0             -472.76803     -23.191411     -59.784723     -5.1501052     -4.6394062      0.0081773139  -0.096921094    0.004027648    9.2160922      9.2160001      9.2160001      782.76563    
        17   0             -472.76978     -109.03253     -163.87628     -95.0579       -68.163398      0.44055633    -5.0988425      0.23178155     9.2160922      9.2160001      9.2160001      782.76563    
        18   0             -472.77415     -324.9165      -425.654       -321.14295     -227.95256      1.5406923     -17.640222      0.89484352     9.2160922      9.2160001      9.2160001      782.76563    
        19   0             -472.78112     -670.67233     -844.89543     -683.1582      -483.96335      3.3247354     -37.658886      2.1320803      9.2160922      9.2160001      9.2160001      782.76563    
        20   0             -472.79061     -1146.0304     -1421.2502     -1180.71       -836.13093      5.8140407     -65.086731      4.1043138      9.2160922      9.2160001      9.2160001      782.76563    
        21   0             -472.80255     -1750.6527     -2154.2746     -1813.2868     -1284.3967      9.0477276     -99.85864       6.9846777      9.2160922      9.2160001      9.2160001      782.76563    
        22   0             -472.81685     -2484.3061     -3043.6402     -2580.4216     -1828.8566      13.153188     -141.96265      10.906434      9.2160922      9.2160001      9.2160001      782.76563    
        23   0             -472.83346     -3347.8632     -4090.3392     -3482.5955     -2470.6548      18.821846     -191.7718       15.606523      9.2160922      9.2160001      9.2160001      782.76563    
        24   0             -472.85287     -4347.1914     -5301.2836     -4524.1446     -3216.1459      31.210711     -252.56386      17.392997      9.2160922      9.2160001      9.2160001      782.76563    
        25   0             -472.87588     -5397.4579     -6567.8075     -5605.606      -4018.9601      105.0024      -353.33283     -29.181202      9.2160922      9.2160001      9.2160001      782.76563    
        26   0             -472.89937     -6579.0978     -7960.8368     -6817.087      -4959.3695      145.09308     -472.73664     -50.583976      9.2160922      9.2160001      9.2160001      782.76563    
        27   0             -472.92545     -7954.2561     -9564.4067     -8231.9923     -6066.3694      198.49903     -1029.9589     -23.957838      9.2160922      9.2160001      9.2160001      782.76563    
        28   0             -472.95045     -9314.496      -11174.586     -9601.6927     -7167.209       281.05574     -1472.8179     -54.460857      9.2160922      9.2160001      9.2160001      782.76563    
        29   0             -472.97551     -10748.215     -12883.869     -11037.16      -8323.6179      478.58329     -2680.3731      8.5353797      9.2160922      9.2160001      9.2160001      782.76563    
        30   0             -473.00026     -12086.925     -14533.757     -12316.163     -9410.8553      860.02119     -3034.0183     -9.1424822      9.2160922      9.2160001      9.2160001      782.76563    
        31   0             -473.02577     -13569.529     -16374.773     -13719.842     -10613.973      1340.2075     -4063.2589      45.84353       9.2160922      9.2160001      9.2160001      782.76563    
        32   0             -473.04705     -14626.672     -17738.11      -14688.929     -11452.978      1459.823      -4254.7911      38.53281       9.2160922      9.2160001      9.2160001      782.76563    
        33   0             -473.07297     -15863.927     -19339.034     -15830.946     -12421.801      1819.02       -4274.2892      37.184342      9.2160922      9.2160001      9.2160001      782.76563    
        34   0             -473.09639     -16973.988     -20754.285     -16896.07      -13271.608      1758.0618     -4865.4445      35.638569      9.2160922      9.2160001      9.2160001      782.76563    
        35   0             -473.12255     -18275.962     -22382.509     -18176.316     -14269.059      1963.9234     -5310.8467     -220.19696      9.2160922      9.2160001      9.2160001      782.76563    
        36   0             -473.14673     -19494.297     -23924.436     -19404.827     -15153.629      2060.3153     -5406.1316     -747.06846      9.2160922      9.2160001      9.2160001      782.76563    
        37   0             -473.16917     -20705.875     -25480.84      -20652.68      -15984.105      2270.9536     -5671.4074     -1093.4912      9.2160922      9.2160001      9.2160001      782.76563    
        38   0             -473.18875     -21805.779     -26932.279     -21783.799     -16701.26       2697.4593     -6480.1231     -1409.0871      9.2160922      9.2160001      9.2160001      782.76563    
        39   0             -473.20911     -22724.757     -28297.812     -22710.62      -17165.838      2861.9917     -6810.1441     -634.1901       9.2160922      9.2160001      9.2160001      782.76563    
        40   0             -473.2312      -23687.881     -29801.677     -23608.254     -17653.713      3118.4552     -6483.2495     -780.26024      9.2160922      9.2160001      9.2160001      782.76563    
        41   0             -473.25573     -24688.948     -31402.781     -24541.004     -18123.06       3338.3551     -6021.3852     -602.58033      9.2160922      9.2160001      9.2160001      782.76563    
        42   0             -473.28069     -25777.884     -33159.498     -25551.905     -18622.248      3632.0527     -5966.8785     -655.95783      9.2160922      9.2160001      9.2160001      782.76563    
        43   0             -473.30328     -26939.824     -35054.586     -26668.675     -19096.213      4122.1717     -6167.8988     -940.57255      9.2160922      9.2160001      9.2160001      782.76563    
        44   0             -473.32248     -27938.021     -36846.824     -27599.597     -19367.643      4748.9841     -5822.3392     -150.45648      9.2160922      9.2160001      9.2160001      782.76563    
        45   0             -473.33913     -28580.312     -38507.046     -28031.661     -19202.229      5086.792      -5139.5003     -781.56956      9.2160922      9.2160001      9.2160001      782.76563    
        46   0             -473.35761     -29356.612     -40483.678     -28501.593     -19084.566      5448.5084     -4774.2964     -711.2033       9.2160922      9.2160001      9.2160001      782.76563    
        47   0             -473.37374     -30101.897     -42581.639     -28888.682     -18835.369      5177.3825     -4834.1966     -555.75254      9.2160922      9.2160001      9.2160001      782.76563    
        48   0             -473.38928     -30934.38      -45039.729     -29282.409     -18481.001      4585.9694     -4991.392      -149.178        9.2160922      9.2160001      9.2160001      782.76563    
        49   0             -473.40223     -31668.26      -47565.157     -29522.717     -17916.905      3942.761      -5008.1808      720.01164      9.2160922      9.2160001      9.2160001      782.76563    
        50   0             -473.41397     -32426.815     -50203.874     -29832.979     -17243.593      3258.7828     -4803.4413      396.24692      9.2160922      9.2160001      9.2160001      782.76563    
        51   0             -473.42558     -33454.188     -53156.071     -30508.929     -16697.565      2368.7365     -4592.9272      423.16935      9.2160922      9.2160001      9.2160001      782.76563    
        52   0             -473.43858     -34782.398     -56618.737     -31520.705     -16207.754      1910.5338     -3961.4648      62.526887      9.2160922      9.2160001      9.2160001      782.76563    
        53   0             -473.44982     -35877.905     -59517.965     -32457.37      -15658.379      1915.0673     -3822.5076     -1443.6921      9.2160922      9.2160001      9.2160001      782.76563    
        54   0             -473.45999     -36655.87      -61756.218     -33211.215     -15000.178      1737.1397     -3381.862      -2024.1781      9.2160922      9.2160001      9.2160001      782.76563    
        55   0             -473.47009     -37218.758     -63538.006     -33969.978     -14148.29       1550.2673     -2855.2985     -1773.7231      9.2160922      9.2160001      9.2160001      782.76563    
        56   0             -473.47803     -37736.017     -64795.94      -34973.004     -13439.106      1183.6401     -2094.9992     -2436.818       9.2160922      9.2160001      9.2160001      782.76563    
        57   0             -473.48495     -38251.941     -65719.179     -36120.78      -12915.863      1049.5874     -1401.5049     -2852.5422      9.2160922      9.2160001      9.2160001      782.76563    
        58   0             -473.49122     -38594.428     -65831.612     -37561.686     -12389.988      2053.3981     -2423.5032     -3101.6503      9.2160922      9.2160001      9.2160001      782.76563    
        59   0             -473.49839     -38960.422     -65845.227     -39114.619     -11921.42       2097.2054     -2430.0877     -3662.2532      9.2160922      9.2160001      9.2160001      782.76563    
        60   0             -473.50204     -39027.597     -65790.604     -39658.708     -11633.48       1182.295      -1715.1879     -4319.2934      9.2160922      9.2160001      9.2160001      782.76563    
        61   0             -473.50451     -39159.104     -65784.615     -40307.661     -11385.035      982.18133     -1614.2753     -4758.1209      9.2160922      9.2160001      9.2160001      782.76563    
        62   0             -473.50643     -39235.722     -65747.078     -40894.382     -11065.706      1693.4251     -2301.0783     -4960.2877      9.2160922      9.2160001      9.2160001      782.76563    
        63   0             -473.50842     -39221.382     -65538.783     -41662.026     -10463.335      2080.6203     -2695.7784     -4994.5949      9.2160922      9.2160001      9.2160001      782.76563    
        64   0             -473.51182     -39034.438     -65109.093     -42516.985     -9477.2367      1094.5665     -2373.998      -5206.3222      9.2160922      9.2160001      9.2160001      782.76563    
        65   0             -473.51553     -38849.094     -64906.81      -43100.493     -8539.9785      706.03961     -2178.8472     -4834.736       9.2160922      9.2160001      9.2160001      782.76563    
        66   0             -473.51956     -38837.879     -65056.444     -43801.33      -7655.8631      643.46241     -1937.0545     -3954.4899      9.2160922      9.2160001      9.2160001      782.76563    
        67   0             -473.52396     -39188.088     -65914.17      -44766.157     -6883.9383      862.55799     -2065.3088     -4042.0056      9.2160922      9.2160001      9.2160001      782.76563    
        68   0             -473.52857     -39654.378     -66933.65      -45827.571     -6201.9114      1164.1712     -2053.4274     -4088.282       9.2160922      9.2160001      9.2160001      782.76563    
        69   0             -473.53581     -39996.241     -67782.709     -46534.761     -5671.2532      1133.9313     -1544.8055     -4175.1507      9.2160922      9.2160001      9.2160001      782.76563    
        70   0             -473.54132     -40387.859     -68746.126     -47273.553     -5143.8976      838.05504     -1274.0621     -3995.9157      9.2160922      9.2160001      9.2160001      782.76563    
        71   0             -473.54771     -40794.533     -69669.618     -47907.142     -4806.8393      604.64092     -1236.3679     -3714.4702      9.2160922      9.2160001      9.2160001      782.76563    
        72   0             -473.55314     -41424.687     -70937.83      -48719.964     -4616.266       570.527       -856.86628     -2582.6333      9.2160922      9.2160001      9.2160001      782.76563    
        73   0             -473.55782     -41776.82      -71688.844     -49048.332     -4593.285       558.21683     -319.23544     -2098.0342      9.2160922      9.2160001      9.2160001      782.76563    
        74   0             -473.5606      -42108.124     -72682.011     -49143.062     -4499.2998      395.96297      410.92886     -2100.5875      9.2160922      9.2160001      9.2160001      782.76563    
        75   0             -473.56304     -42427.327     -73607.671     -49207.084     -4467.2251      490.3471       930.14732     -1794.445       9.2160922      9.2160001      9.2160001      782.76563    
        76   0             -473.56454     -42551.671     -74001.771     -49223.901     -4429.3414      742.30734      1002.2363     -1763.3219      9.2160922      9.2160001      9.2160001      782.76563    
        77   0             -473.56599     -42616.01      -74226.58      -49242.94      -4378.5107      943.36187      924.89826     -1544.1935      9.2160922      9.2160001      9.2160001      782.76563    
        78   0             -473.56735     -42710.066     -74463.552     -49284.015     -4382.6321      1148.7635      771.80845     -1045.3252      9.2160922      9.2160001      9.2160001      782.76563    
        79   0             -473.56859     -42877.476     -74852.044     -49301.345     -4479.0388      987.37977      890.42671     -661.36145      9.2160922      9.2160001      9.2160001      782.76563    
        80   0             -473.57055     -43155.761     -75509.245     -49292.203     -4665.8347      575.955        1044.4419     -245.00184      9.2160922      9.2160001      9.2160001      782.76563    
        81   0             -473.57364     -43489.282     -76368.756     -49283.228     -4815.8614      497.37794      900.08704     -69.17742       9.2160922      9.2160001      9.2160001      782.76563    
        82   0             -473.57513     -43735.859     -76913.466     -49371.958     -4922.1524      905.32154      786.30613      127.97512      9.2160922      9.2160001      9.2160001      782.76563    
        83   0             -473.57583     -43837.661     -77116.375     -49422.799     -4973.8091      864.88297      888.78823      612.77216      9.2160922      9.2160001      9.2160001      782.76563    
        84   0             -473.57642     -43971.287     -77407.311     -49462.295     -5044.2553      833.40024      1056.7037      987.28193      9.2160922      9.2160001      9.2160001      782.76563    
        85   0             -473.57703     -44072.595     -77702.238     -49458.07      -5057.4763      958.16133      1124.3707      927.46967      9.2160922      9.2160001      9.2160001      782.76563    
        86   0             -473.57742     -44105.68      -77842.118     -49440.242     -5034.681       997.9124       1083.7791      1017.9721      9.2160922      9.2160001      9.2160001      782.76563    
        87   0             -473.57772     -44100.954     -77896.06      -49415.891     -4990.9122      771.39603      1078.2995      1289.5667      9.2160922      9.2160001      9.2160001      782.76563    
        88   0             -473.57802     -44101.469     -77968.207     -49393.037     -4943.1622      467.87798      987.25507      1177.0472      9.2160922      9.2160001      9.2160001      782.76563    
        89   0             -473.57832     -44124.027     -78130.805     -49354.402     -4886.873       245.75383      716.8224       775.10898      9.2160922      9.2160001      9.2160001      782.76563    
        90   0             -473.57849     -44158.3       -78317.13      -49304.699     -4853.0708      252.46781      416.59815      603.45303      9.2160922      9.2160001      9.2160001      782.76563    
        91   0             -473.57864     -44205.821     -78523.948     -49261.555     -4831.959       253.14396      130.00336      564.35553      9.2160922      9.2160001      9.2160001      782.76563    
        92   0             -473.57874     -44242.876     -78639.278     -49264.445     -4824.9051      155.77425      51.047402      511.5716       9.2160922      9.2160001      9.2160001      782.76563    
        93   0             -473.57884     -44272.496     -78713.312     -49284.394     -4819.7825      13.241901      38.212551      452.88462      9.2160922      9.2160001      9.2160001      782.76563    
        94   0             -473.5789      -44271.106     -78722.165     -49283.108     -4808.0466     -71.928209      29.182267      424.15086      9.2160922      9.2160001      9.2160001      782.76563    
        95   0             -473.57895     -44250.283     -78709.29      -49250.937     -4790.623      -114.59845     -61.633921      356.8201       9.2160922      9.2160001      9.2160001      782.76563    
        96   0             -473.579       -44254.78      -78739.024     -49234.315     -4791.002      -119.87261     -177.92533      251.179        9.2160922      9.2160001      9.2160001      782.76563    
        97   0             -473.57905     -44305.143     -78837.227     -49257.097     -4821.1063     -120.88151     -276.95218      142.15063      9.2160922      9.2160001      9.2160001      782.76563    
        98   0             -473.57914     -44408.157     -79008.593     -49322.066     -4893.8114     -141.63398     -333.537        91.555736      9.2160922      9.2160001      9.2160001      782.76563    
        99   0             -473.57927     -44544.866     -79194.489     -49420.011     -5020.0974     -238.62133     -301.64901      2.9865452      9.2160922      9.2160001      9.2160001      782.76563    
[...]
       174   0             -473.60282     -58542.438     -85821.924     -64705.115     -25100.275     -2.3948132     -1.4617169     -2018.4254      9.2160001      9.2160001      9.2160001      782.7578     
       175   0             -473.60282     -58542.717     -85822.05      -64705.418     -25100.683     -2.3315318     -1.5069877     -2018.5182      9.2160001      9.2160001      9.2160001      782.7578     
       176   0             -473.60282     -58542.902     -85822.148     -64705.62      -25100.939     -2.3299444     -1.523547      -2018.5437      9.2160001      9.2160001      9.2160001      782.7578     
       177   0             -473.60282     -58543.062     -85822.241     -64705.788     -25101.158     -2.3629241     -1.5467953     -2018.5503      9.2160001      9.2160001      9.2160001      782.7578     
       178   0             -473.60282     -58543.205     -85822.331     -64705.927     -25101.358     -2.3904288     -1.583475      -2018.5631      9.2160001      9.2160001      9.2160001      782.7578     
       179   0             -473.60282     -58543.301     -85822.394     -64706.012     -25101.496     -2.3994029     -1.6110865     -2018.5874      9.2160001      9.2160001      9.2160001      782.7578     
       180   0             -473.60282     -58543.409     -85822.456     -64706.113     -25101.657     -2.4185763     -1.6224802     -2018.5965      9.2160001      9.2160001      9.2160001      782.7578     
       181   0             -473.60282     -58543.513     -85822.503     -64706.224     -25101.813     -2.4339695     -1.6304535     -2018.5769      9.2160001      9.2160001      9.2160001      782.7578     
       182   0             -473.60282     -58543.655     -85822.561     -64706.386     -25102.017     -2.4187625     -1.6694313     -2018.5759      9.2160001      9.2160001      9.2160001      782.7578     
       183   0             -473.60282     -58543.828     -85822.633     -64706.585     -25102.265     -2.4132233     -1.6855021     -2018.6253      9.2160001      9.2160001      9.2160001      782.7578     
       184   0             -473.60282     -58543.95      -85822.694     -64706.717     -25102.44      -2.4376612     -1.6499891     -2018.6551      9.2160001      9.2160001      9.2160001      782.7578     
       185   0             -473.60282     -58544.026     -85822.749     -64706.784     -25102.546     -2.444892      -1.6297898     -2018.6482      9.2160001      9.2160001      9.2160001      782.7578     
       186   0             -473.60282     -58544.085     -85822.796     -64706.83      -25102.628     -2.4358513     -1.6367261     -2018.6385      9.2160001      9.2160001      9.2160001      782.7578     
       187   0             -473.60282     -58544.124     -85822.825     -64706.863     -25102.685     -2.4280865     -1.6446756     -2018.6468      9.2160001      9.2160001      9.2160001      782.7578     
       188   0             -473.60282     -58544.155     -85822.841     -64706.895     -25102.729     -2.4269445     -1.6412849     -2018.6621      9.2160001      9.2160001      9.2160001      782.7578     
       189   0             -473.60282     -58544.197     -85822.856     -64706.945     -25102.791     -2.4315381     -1.6317234     -2018.6711      9.2160001      9.2160001      9.2160001      782.7578     
       190   0             -473.60282     -58544.226     -85822.867     -64706.979     -25102.832     -2.4312628     -1.6344735     -2018.6694      9.2160001      9.2160001      9.2160001      782.7578     
       191   0             -473.60282     -58544.252     -85822.882     -64707.006     -25102.869     -2.4288111     -1.6414172     -2018.6712      9.2160001      9.2160001      9.2160001      782.7578     
       192   0             -473.60282     -58544.297     -85822.908     -64707.048     -25102.933     -2.4272175     -1.6422402     -2018.6782      9.2160001      9.2160001      9.2160001      782.7578     
       193   0             -473.60282     -58544.336     -85822.933     -64707.086     -25102.99      -2.4227466     -1.6378113     -2018.6796      9.2160001      9.2160001      9.2160001      782.7578     
       194   0             -473.60282     -58544.368     -85822.951     -64707.118     -25103.034     -2.4214758     -1.6320911     -2018.677       9.2160001      9.2160001      9.2160001      782.7578     
       195   0             -473.60282     -58544.395     -85822.963     -64707.149     -25103.074     -2.4232352     -1.6279244     -2018.6793      9.2160001      9.2160001      9.2160001      782.7578     
       196   0             -473.60282     -58544.411     -85822.969     -64707.167     -25103.098     -2.420285      -1.6274587     -2018.6865      9.2160001      9.2160001      9.2160001      782.7578     
       197   0             -473.60282     -58544.418     -85822.973     -64707.174     -25103.107     -2.4177989     -1.6260498     -2018.6905      9.2160001      9.2160001      9.2160001      782.7578     
       198   0             -473.60282     -58544.426     -85822.978     -64707.181     -25103.118     -2.416232      -1.6241834     -2018.6919      9.2160001      9.2160001      9.2160001      782.7578     
       199   0             -473.60282     -58544.434     -85822.984     -64707.188     -25103.129     -2.415196      -1.6242067     -2018.6922      9.2160001      9.2160001      9.2160001      782.7578     
       200   0             -473.60282     -58544.441     -85822.991     -64707.194     -25103.14      -2.4166799     -1.6232929     -2018.6938      9.2160001      9.2160001      9.2160001      782.7578     
       201   0             -473.60282     -58544.442     -85822.991     -64707.195     -25103.141     -2.4172589     -1.6229212     -2018.6943      9.2160001      9.2160001      9.2160001      782.7578     
       202   0             -473.60282     -58544.444     -85822.991     -64707.197     -25103.143     -2.4170506     -1.6237567     -2018.6949      9.2160001      9.2160001      9.2160001      782.7578     
       203   0             -473.60282     -58544.447     -85822.992     -64707.201     -25103.147     -2.4172889     -1.6258838     -2018.6943      9.2160001      9.2160001      9.2160001      782.7578     
       204   0             -473.60282     -58544.453     -85822.994     -64707.208     -25103.157     -2.4197362     -1.6282553     -2018.6937      9.2160001      9.2160001      9.2160001      782.7578     
       205   0             -473.60282     -58544.472     -85823.003     -64707.229     -25103.185     -2.4249033     -1.6319285     -2018.6952      9.2160001      9.2160001      9.2160001      782.7578     
       206   0             -473.60282     -58544.486     -85823.01      -64707.243     -25103.204     -2.4257745     -1.6348203     -2018.697       9.2160001      9.2160001      9.2160001      782.7578     
       207   0             -473.60282     -58544.494     -85823.016     -64707.25      -25103.216     -2.4237987     -1.6364169     -2018.699       9.2160001      9.2160001      9.2160001      782.7578     
       208   0             -473.60282     -58544.504     -85823.025     -64707.259     -25103.23      -2.4221492     -1.6353028     -2018.7024      9.2160001      9.2160001      9.2160001      782.7578     
       209   0             -473.60282     -58544.508     -85823.028     -64707.261     -25103.235     -2.4230562     -1.6328218     -2018.7041      9.2160001      9.2160001      9.2160001      782.7578     
       210   0             -473.60282     -58544.51      -85823.03      -64707.263     -25103.237     -2.4236993     -1.6307909     -2018.7051      9.2160001      9.2160001      9.2160001      782.7578     
       211   0             -473.60282     -58544.512     -85823.031     -64707.264     -25103.24      -2.4230191     -1.6296575     -2018.7054      9.2160001      9.2160001      9.2160001      782.7578     
       212   0             -473.60282     -58544.514     -85823.032     -64707.267     -25103.243     -2.4213039     -1.6295147     -2018.7053      9.2160001      9.2160001      9.2160001      782.7578     
       213   0             -473.60282     -58544.517     -85823.033     -64707.27      -25103.247     -2.4198013     -1.6287664     -2018.7056      9.2160001      9.2160001      9.2160001      782.7578     
       214   0             -473.60282     -58544.519     -85823.034     -64707.272     -25103.25      -2.4199334     -1.6277658     -2018.7057      9.2160001      9.2160001      9.2160001      782.7578     
       215   0             -473.60282     -58544.519     -85823.034     -64707.273     -25103.251     -2.4202707     -1.6273691     -2018.7057      9.2160001      9.2160001      9.2160001      782.7578     
       216   0             -473.60282     -58544.52      -85823.034     -64707.274     -25103.252     -2.4204539     -1.6273351     -2018.7054      9.2160001      9.2160001      9.2160001      782.7578     
       217   0             -473.60282     -58544.521     -85823.035     -64707.274     -25103.253     -2.4203481     -1.6276448     -2018.7053      9.2160001      9.2160001      9.2160001      782.7578     
       218   0             -473.60282     -58544.521     -85823.035     -64707.275     -25103.253     -2.4200799     -1.6279738     -2018.7054      9.2160001      9.2160001      9.2160001      782.7578     
       219   0             -473.60282     -58544.521     -85823.035     -64707.275     -25103.253     -2.4199015     -1.6280298     -2018.7054      9.2160001      9.2160001      9.2160001      782.7578     
       220   0             -473.60282     -58544.521     -85823.035     -64707.275     -25103.253     -2.419937      -1.6278047     -2018.7054      9.2160001      9.2160001      9.2160001      782.7578     
       221   0             -473.60282     -58544.521     -85823.035     -64707.275     -25103.253     -2.4199974     -1.627575      -2018.7054      9.2160001      9.2160001      9.2160001      782.7578     
       222   0             -473.60282     -58544.521     -85823.035     -64707.275     -25103.253     -2.4199224     -1.6274687     -2018.7054      9.2160001      9.2160001      9.2160001      782.7578     
       223   0             -473.60282     -58544.521     -85823.035     -64707.275     -25103.254     -2.4198018     -1.6275004     -2018.7054      9.2160001      9.2160001      9.2160001      782.7578     
       224   0             -473.60282     -58544.521     -85823.035     -64707.275     -25103.254     -2.4197009     -1.6275116     -2018.7053      9.2160001      9.2160001      9.2160001      782.7578     
       225   0             -473.60282     -58544.521     -85823.035     -64707.275     -25103.254     -2.4197406     -1.6273987     -2018.7052      9.2160001      9.2160001      9.2160001      782.7578     
       226   0             -473.60282     -58544.521     -85823.035     -64707.275     -25103.254     -2.4197848     -1.6273505     -2018.7051      9.2160001      9.2160001      9.2160001      782.7578     
       227   0             -473.60282     -58544.521     -85823.035     -64707.276     -25103.254     -2.4197669     -1.6273869     -2018.7051      9.2160001      9.2160001      9.2160001      782.7578     
       228   0             -473.60282     -58544.521     -85823.035     -64707.276     -25103.254     -2.4197572     -1.6274255     -2018.7051      9.2160001      9.2160001      9.2160001      782.7578     
       229   0             -473.60282     -58544.521     -85823.035     -64707.276     -25103.254     -2.419771      -1.627445      -2018.7051      9.2160001      9.2160001      9.2160001      782.7578     
       230   0             -473.60282     -58544.521     -85823.035     -64707.276     -25103.254     -2.419777      -1.6274616     -2018.7051      9.2160001      9.2160001      9.2160001      782.7578     
       231   0             -473.60282     -58544.521     -85823.035     -64707.276     -25103.254     -2.4197799     -1.6274688     -2018.7051      9.2160001      9.2160001      9.2160001      782.7578     
       232   0             -473.60282     -58544.521     -85823.035     -64707.276     -25103.254     -2.4197955     -1.6274614     -2018.7051      9.2160001      9.2160001      9.2160001      782.7578     
       233   0             -473.60282     -58544.522     -85823.035     -64707.276     -25103.254     -2.4198058     -1.6274603     -2018.7051      9.2160001      9.2160001      9.2160001      782.7578     
       234   0             -473.60282     -58544.522     -85823.035     -64707.276     -25103.254     -2.4197968     -1.6274819     -2018.7051      9.2160001      9.2160001      9.2160001      782.7578     
       235   0             -473.60282     -58544.522     -85823.035     -64707.276     -25103.254     -2.4197973     -1.6274848     -2018.7051      9.2160001      9.2160001      9.2160001      782.7578     
       236   0             -473.60282     -58544.522     -85823.035     -64707.276     -25103.254     -2.4198057     -1.6274763     -2018.7051      9.2160001      9.2160001      9.2160001      782.7578     
       237   0             -473.60282     -58544.522     -85823.035     -64707.276     -25103.254     -2.4198104     -1.6274784     -2018.7051      9.2160001      9.2160001      9.2160001      782.7578     
       238   0             -473.60282     -58544.522     -85823.035     -64707.276     -25103.254     -2.4198113     -1.6274859     -2018.705       9.2160001      9.2160001      9.2160001      782.7578     
       239   0             -473.60282     -58544.522     -85823.035     -64707.276     -25103.254     -2.4198108     -1.6274882     -2018.705       9.2160001      9.2160001      9.2160001      782.7578     
       240   0             -473.60282     -58544.522     -85823.035     -64707.276     -25103.254     -2.4198108     -1.6274885     -2018.705       9.2160001      9.2160001      9.2160001      782.7578     
       241   0             -473.60282     -58544.522     -85823.035     -64707.276     -25103.254     -2.4198113     -1.6274886     -2018.705       9.2160001      9.2160001      9.2160001      782.7578     
       242   0             -473.60282     -58544.522     -85823.035     -64707.276     -25103.254     -2.4198118     -1.6274892     -2018.705       9.2160001      9.2160001      9.2160001      782.7578     
       243   0             -473.60282     -58544.522     -85823.035     -64707.276     -25103.254     -2.4198119     -1.6274897     -2018.705       9.2160001      9.2160001      9.2160001      782.7578     
       244   0             -473.60282     -58544.522     -85823.035     -64707.276     -25103.254     -2.4198119     -1.6274897     -2018.705       9.2160001      9.2160001      9.2160001      782.7578     
       245   0             -473.60282     -58544.522     -85823.035     -64707.276     -25103.254     -2.4198118     -1.6274897     -2018.705       9.2160001      9.2160001      9.2160001      782.7578     
       246   0             -473.60282     -58544.522     -85823.035     -64707.276     -25103.254     -2.4198118     -1.6274897     -2018.705       9.2160001      9.2160001      9.2160001      782.7578     
       247   0             -473.60282     -58544.522     -85823.035     -64707.276     -25103.254     -2.4198119     -1.6274897     -2018.705       9.2160001      9.2160001      9.2160001      782.7578     
       248   0             -473.60282     -58544.522     -85823.035     -64707.276     -25103.254     -2.4198119     -1.6274896     -2018.705       9.2160001      9.2160001      9.2160001      782.7578     
       249   0             -473.60282     -58544.522     -85823.035     -64707.276     -25103.254     -2.4198119     -1.6274896     -2018.705       9.2160001      9.2160001      9.2160001      782.7578     
       250   0             -473.60282     -58544.522     -85823.035     -64707.276     -25103.254     -2.4198118     -1.6274896     -2018.705       9.2160001      9.2160001      9.2160001      782.7578     
       251   0             -473.60282     -58544.522     -85823.035     -64707.276     -25103.254     -2.4198118     -1.6274896     -2018.705       9.2160001      9.2160001      9.2160001      782.7578     
       252   0             -473.60282     -58544.522     -85823.035     -64707.276     -25103.254     -2.4198118     -1.6274896     -2018.705       9.2160001      9.2160001      9.2160001      782.7578     
       253   0             -473.60282     -58544.522     -85823.035     -64707.276     -25103.254     -2.4198118     -1.6274896     -2018.705       9.2160001      9.2160001      9.2160001      782.7578     
       254   0             -473.60282     -58544.522     -85823.035     -64707.276     -25103.254     -2.4198118     -1.6274896     -2018.705       9.2160001      9.2160001      9.2160001      782.7578     
       255   0             -473.60282     -58544.522     -85823.035     -64707.276     -25103.254     -2.4198118     -1.6274896     -2018.705       9.2160001      9.2160001      9.2160001      782.7578     
Loop time of 0.423783 on 1 procs for 246 steps with 64 atoms

99.1% CPU use with 1 MPI tasks x no OpenMP threads

Minimization stats:
  Stopping criterion = force tolerance
  Energy initial, next-to-last, final = 
     -472.768000014492  -473.602817353262  -473.602817353262
  Force two-norm initial, final = 0.00012270067 6.002794e-13
  Force max component initial, final = 2.3275035e-05 1.2252005e-13
  Final line search alpha, max atom move = 1 1.2252005e-13
  Iterations, force evaluations = 246 432

MPI task timing breakdown:
Section |  min time  |  avg time  |  max time  |%varavg| %total
---------------------------------------------------------------
Pair    | 0.41815    | 0.41815    | 0.41815    |   0.0 | 98.67
Neigh   | 0          | 0          | 0          |   0.0 |  0.00
Comm    | 0.0014144  | 0.0014144  | 0.0014144  |   0.0 |  0.33
Output  | 0.0028873  | 0.0028873  | 0.0028873  |   0.0 |  0.68
Modify  | 0          | 0          | 0          |   0.0 |  0.00
Other   |            | 0.001329   |            |       |  0.31

Nlocal:             64 ave          64 max          64 min
Histogram: 1 0 0 0 0 0 0 0 0 0
Nghost:            665 ave         665 max         665 min
Histogram: 1 0 0 0 0 0 0 0 0 0
Neighs:           2560 ave        2560 max        2560 min
Histogram: 1 0 0 0 0 0 0 0 0 0
FullNghs:         5120 ave        5120 max        5120 min
Histogram: 1 0 0 0 0 0 0 0 0 0

Total # of neighbors = 5120
Ave neighs/atom = 80
Neighbor list builds = 0
Dangerous builds = 0
=========================================
Components of the Elastic Constant Tensor
=========================================
Elastic Constant C11all = 351.960728048987 GPa
Elastic Constant C22all = 168.997255349008 GPa
Elastic Constant C33all = -6.78321615800087 GPa
Elastic Constant C12all = -88.1847529232328 GPa
Elastic Constant C13all = -155.603652965008 GPa
Elastic Constant C23all = -385.573630052255 GPa
Elastic Constant C44all = 16.2362009911503 GPa
Elastic Constant C55all = 9.16383061485026 GPa
Elastic Constant C66all = 24.1981184748884 GPa
Elastic Constant C14all = -50.9917545647322 GPa
Elastic Constant C15all = 7.6455833336358e-08 GPa
Elastic Constant C16all = 1.39498055966782e-09 GPa
Elastic Constant C24all = -16.7868257581558 GPa
Elastic Constant C25all = 1.51754882652296e-07 GPa
Elastic Constant C26all = 3.2410974762469e-09 GPa
Elastic Constant C34all = -22.9415229115275 GPa
Elastic Constant C35all = 1.93083292507062e-07 GPa
Elastic Constant C36all = 4.57625158964162e-09 GPa
Elastic Constant C45all = 2.55879281360817e-08 GPa
Elastic Constant C46all = -9.7484058451584e-10 GPa
Elastic Constant C56all = 16.2748875886702 GPa
=========================================
Average properties for a cubic crystal
=========================================
Bulk Modulus = -82.7277005156667 GPa
Shear Modulus 1 = 16.5327166936297 GPa
Shear Modulus 2 = 190.589467196749 GPa
Poisson Ratio = 5.46381594980686
Lattice constant (Angstroms) = 9.21600005396495;
Total wall time: 0:00:05
