LAMMPS (23 Jun 2022)
Lattice spacing in x,y,z = 4.25 4.25 4.25
Created orthogonal box = (0 0 0) to (4.25 4.25 4.25)
  1 by 1 by 1 MPI processor grid
Lattice spacing in x,y,z = 4.25 4.25 4.25
Created 4 atoms
  using lattice units in orthogonal box = (0 0 0) to (4.25 4.25 4.25)
  create_atoms CPU = 0.000 seconds
Lattice spacing in x,y,z = 4.25 4.25 4.25
Created 4 atoms
  using lattice units in orthogonal box = (0 0 0) to (4.25 4.25 4.25)
  create_atoms CPU = 0.000 seconds
Replicating atoms ...
  orthogonal box = (0 0 0) to (4.25 4.25 4.25)
  1 by 1 by 1 MPI processor grid
  8 atoms
  replicate CPU = 0.000 seconds
Reading MEAM library file library.meam with DATE: 2015-02-12
WARNING: Using 'neigh_modify every 1 delay 0 check yes' setting during minimization (src/min.cpp:187)
Neighbor list info ...
  update every 1 steps, delay 0 steps, check yes
  max neighbors/atom: 2000, page size: 100000
  master list distance cutoff = 6.6
  ghost atom cutoff = 6.6
  binsize = 3.3, bins = 2 2 2
  2 neighbor lists, perpetual/occasional/extra = 2 0 0
  (1) pair meam, perpetual
      attributes: full, newton on
      pair build: full/bin/atomonly
      stencil: full/bin/3d
      bin: standard
  (2) pair meam, perpetual, half/full from (1)
      attributes: half, newton on
      pair build: halffull/newton
      stencil: none
      bin: none
Setting up cg style minimization ...
  Unit style    : metal
  Current step  : 0
WARNING: Energy due to 1 extra global DOFs will be included in minimizer energies
Per MPI rank memory allocation (min/avg/max) = 9.733 | 9.733 | 9.733 Mbytes
   Step         PotEng           Lx             Ly             Lz           Press           Pxx            Pyy            Pzz          c_eatoms   
         0  -52.917575      4.25           4.25           4.25          -17866.149     -17866.149     -17866.149     -17866.149     -52.917575    
         6  -52.92          4.242          4.242          4.242          5.9033815e-10  5.3130412e-10  5.5926782e-10  6.8044251e-10 -52.92        
Loop time of 0.00431171 on 1 procs for 6 steps with 8 atoms

100.0% CPU use with 1 MPI tasks x no OpenMP threads

Minimization stats:
  Stopping criterion = energy tolerance
  Energy initial, next-to-last, final = 
     -52.9175752301705  -52.9200000015917  -52.9200000015917
  Force two-norm initial, final = 2.5680805 8.6082064e-14
  Force max component initial, final = 2.5680805 8.4536061e-14
  Final line search alpha, max atom move = 1 8.4536061e-14
  Iterations, force evaluations = 6 11

MPI task timing breakdown:
Section |  min time  |  avg time  |  max time  |%varavg| %total
---------------------------------------------------------------
Pair    | 0.0041243  | 0.0041243  | 0.0041243  |   0.0 | 95.65
Neigh   | 0          | 0          | 0          |   0.0 |  0.00
Comm    | 4.9539e-05 | 4.9539e-05 | 4.9539e-05 |   0.0 |  1.15
Output  | 0          | 0          | 0          |   0.0 |  0.00
Modify  | 0          | 0          | 0          |   0.0 |  0.00
Other   |            | 0.0001378  |            |       |  3.20

Nlocal:              8 ave           8 max           8 min
Histogram: 1 0 0 0 0 0 0 0 0 0
Nghost:            721 ave         721 max         721 min
Histogram: 1 0 0 0 0 0 0 0 0 0
Neighs:            488 ave         488 max         488 min
Histogram: 1 0 0 0 0 0 0 0 0 0
FullNghs:          976 ave         976 max         976 min
Histogram: 1 0 0 0 0 0 0 0 0 0

Total # of neighbors = 976
Ave neighs/atom = 122
Neighbor list builds = 0
Dangerous builds = 0
Total energy (eV) = -52.9200000015918;
Number of atoms = 8;
Lattice constant (Angstoms) = 4.24200001764908;
Cohesive energy (eV) = -6.61500000019898;
All done!
Total wall time: 0:00:00
