LAMMPS (23 Jun 2022)
# Compute elastic constant tensor for a crystal
#
# Written by Aidan Thompson (Sandia, athomps@sandia.gov)
#
#  This script uses the following three include files.
#
#   init.mod      (must be modified for different crystal structures)
# 	       	  Define units, deformation parameters and initial
#		  configuration of the atoms and simulation cell.
#
#
#   potential.mod    (must be modified for different pair styles)
# 		     Define pair style and other attributes
#		     not stored in restart file
#
#
#   displace.mod    (displace.mod should not need to be modified)
# 		    Perform positive and negative box displacements
# 		    in direction ${dir} and size ${up}.
# 		    It uses the resultant changes
#		    in stress to compute one
# 		    row of the elastic stiffness tensor
#
#		    Inputs variables:
#		    	   dir = the Voigt deformation component
#		    		    (1,2,3,4,5,6)
#		    Global constants:
#       	    	   up = the deformation magnitude (strain units)
#       		   cfac = conversion from LAMMPS pressure units to
#               	   output units for elastic constants
#
#
#  To run this on a different system, it should only be necessary to
#  modify the files init.mod and potential.mod. In order to calculate
#  the elastic constants correctly, care must be taken to specify
#  the correct units in init.mod (units, cfac and cunits). It is also
#  important to verify that the minimization of energy w.r.t atom
#  positions in the deformed cell is fully converged.
#  One indication of this is that the elastic constants are insensitive
#  to the choice of the variable ${up} in init.mod. Another is to check
#  the final max and two-norm forces reported in the log file. If you know
#  that minimization is not required, you can set maxiter = 0.0 in
#  init.mod.
#

include init.mod
# NOTE: This script can be modified for different atomic structures,
# units, etc. See in.elastic for more info.
#

# Define the finite deformation size. Try several values of this
# variable to verify that results do not depend on it.
variable up equal 1.0e-6

# Define the amount of random jiggle for atoms
# This prevents atoms from staying on saddle points
variable atomjiggle equal 1.0e-5

# Uncomment one of these blocks, depending on what units
# you are using in LAMMPS and for output

# metal units, elastic constants in eV/A^3
#units		metal
#variable cfac equal 6.2414e-7
#variable cunits string eV/A^3

# metal units, elastic constants in GPa
units		metal
variable cfac equal 1.0e-4
variable cunits string GPa

# real units, elastic constants in GPa
#units		real
#variable cfac equal 1.01325e-4
#variable cunits string GPa

# Define minimization parameters
variable etol equal 0.0
variable ftol equal 1.0e-10
variable maxiter equal 500
variable maxeval equal 1000
variable dmax equal 1.0e-2

# generate the box and atom positions using a diamond lattice
# variable a equal 5.43

boundary	p p p

lattice         fcc 4.538
Lattice spacing in x,y,z = 4.538 4.538 4.538
region		simbox prism -1.0 1.0 -1.0 1.0 -1.0 1.0 0.0 0.0 0.0
create_box	2 simbox
Created triclinic box = (-4.538 -4.538 -4.538) to (4.538 4.538 4.538) with tilt (0 0 0)
  1 by 1 by 1 MPI processor grid
lattice 	fcc 4.538 orient x 1 0 0 orient y 0 1 0 orient z 0 0 1
Lattice spacing in x,y,z = 4.538 4.538 4.538
create_atoms	1 region simbox
Created 32 atoms
  using lattice units in triclinic box = (-4.538 -4.538 -4.538) to (4.538 4.538 4.538) with tilt (0 0 0)
  create_atoms CPU = 0.000 seconds
lattice 	fcc 4.538  origin 0 0 0.5 orient x 1 0 0 orient y 0 1 0 orient z 0 0 1
Lattice spacing in x,y,z = 4.538 4.538 4.538
create_atoms	2 region simbox
Created 32 atoms
  using lattice units in triclinic box = (-4.538 -4.538 -4.538) to (4.538 4.538 4.538) with tilt (0 0 0)
  create_atoms CPU = 0.000 seconds

# Need to set mass to something, just to satisfy LAMMPS
mass 1 47.867
mass 2 14.007

include potential.mod
# NOTE: This script can be modified for different pair styles
# See in.elastic for more info.

# Choose potential
pair_style	meam
pair_coeff * * library_HfN.meam Hf N HfN.meam Hf N
Reading MEAM library file library_HfN.meam with DATE: 2015-02-12

# Setup neighbor style
neighbor 1.0 nsq
neigh_modify once no every 1 delay 0 check yes

# Setup minimization style
min_style	     cg
min_modify	     dmax ${dmax} line quadratic
min_modify	     dmax 0.01 line quadratic

# Setup output
thermo		1
thermo_style custom step temp pe press pxx pyy pzz pxy pxz pyz lx ly lz vol
thermo_modify norm no

# Compute initial state
fix 3 all box/relax  aniso 0.0
minimize ${etol} ${ftol} ${maxiter} ${maxeval}
minimize 0 ${ftol} ${maxiter} ${maxeval}
minimize 0 1e-10 ${maxiter} ${maxeval}
minimize 0 1e-10 500 ${maxeval}
minimize 0 1e-10 500 1000
Neighbor list info ...
  update every 1 steps, delay 0 steps, check yes
  max neighbors/atom: 2000, page size: 100000
  master list distance cutoff = 8.38
  ghost atom cutoff = 8.38
  2 neighbor lists, perpetual/occasional/extra = 2 0 0
  (1) pair meam, perpetual
      attributes: full, newton on
      pair build: full/nsq
      stencil: none
      bin: none
  (2) pair meam, perpetual, half/full from (1)
      attributes: half, newton on
      pair build: halffull/newton
      stencil: none
      bin: none
Per MPI rank memory allocation (min/avg/max) = 10.24 | 10.24 | 10.24 Mbytes
   Step          Temp          PotEng         Press           Pxx            Pyy            Pzz            Pxy            Pxz            Pyz             Lx             Ly             Lz           Volume    
         0   0             -653.44        -0.004375024   -0.004375024   -0.004375024   -0.004375024    5.6725355e-20  8.5088032e-20  0              9.076          9.076          9.076          747.62439    
         1   0             -653.44        -4.8534509e-08 -4.8534509e-08 -4.8534509e-08 -4.8534509e-08  0             -2.1639006e-25 -8.6556022e-25  9.076          9.076          9.076          747.62439    
Loop time of 0.00283586 on 1 procs for 1 steps with 64 atoms

99.9% CPU use with 1 MPI tasks x no OpenMP threads

Minimization stats:
  Stopping criterion = force tolerance
  Energy initial, next-to-last, final = 
     -653.439999877045  -653.439999877045  -653.439999877036
  Force two-norm initial, final = 3.5360156e-06 3.9226934e-11
  Force max component initial, final = 2.0415196e-06 2.2647681e-11
  Final line search alpha, max atom move = 1 2.2647681e-11
  Iterations, force evaluations = 1 2

MPI task timing breakdown:
Section |  min time  |  avg time  |  max time  |%varavg| %total
---------------------------------------------------------------
Pair    | 0.0027797  | 0.0027797  | 0.0027797  |   0.0 | 98.02
Neigh   | 0          | 0          | 0          |   0.0 |  0.00
Comm    | 1.302e-05  | 1.302e-05  | 1.302e-05  |   0.0 |  0.46
Output  | 0          | 0          | 0          |   0.0 |  0.00
Modify  | 0          | 0          | 0          |   0.0 |  0.00
Other   |            | 4.312e-05  |            |       |  1.52

Nlocal:             64 ave          64 max          64 min
Histogram: 1 0 0 0 0 0 0 0 0 0
Nghost:           1267 ave        1267 max        1267 min
Histogram: 1 0 0 0 0 0 0 0 0 0
Neighs:           6464 ave        6464 max        6464 min
Histogram: 1 0 0 0 0 0 0 0 0 0
FullNghs:        12928 ave       12928 max       12928 min
Histogram: 1 0 0 0 0 0 0 0 0 0

Total # of neighbors = 12928
Ave neighs/atom = 202
Neighbor list builds = 0
Dangerous builds = 0

variable tmp equal pxx
variable pxx0 equal ${tmp}
variable pxx0 equal -4.85345085623053e-08
variable tmp equal pyy
variable pyy0 equal ${tmp}
variable pyy0 equal -4.85345085623053e-08
variable tmp equal pzz
variable pzz0 equal ${tmp}
variable pzz0 equal -4.85345085623053e-08
variable tmp equal pyz
variable pyz0 equal ${tmp}
variable pyz0 equal -8.6556022434703e-25
variable tmp equal pxz
variable pxz0 equal ${tmp}
variable pxz0 equal -2.16390056086757e-25
variable tmp equal pxy
variable pxy0 equal ${tmp}
variable pxy0 equal 0

variable tmp equal lx
variable lx0 equal ${tmp}
variable lx0 equal 9.07599999684796
variable tmp equal ly
variable ly0 equal ${tmp}
variable ly0 equal 9.07599999684796
variable tmp equal lz
variable lz0 equal ${tmp}
variable lz0 equal 9.07599999684796

# These formulas define the derivatives w.r.t. strain components
# Constants uses $, variables use v_
variable d1 equal -(v_pxx1-${pxx0})/(v_delta/v_len0)*${cfac}
variable d1 equal -(v_pxx1--4.85345085623053e-08)/(v_delta/v_len0)*${cfac}
variable d1 equal -(v_pxx1--4.85345085623053e-08)/(v_delta/v_len0)*0.0001
variable d2 equal -(v_pyy1-${pyy0})/(v_delta/v_len0)*${cfac}
variable d2 equal -(v_pyy1--4.85345085623053e-08)/(v_delta/v_len0)*${cfac}
variable d2 equal -(v_pyy1--4.85345085623053e-08)/(v_delta/v_len0)*0.0001
variable d3 equal -(v_pzz1-${pzz0})/(v_delta/v_len0)*${cfac}
variable d3 equal -(v_pzz1--4.85345085623053e-08)/(v_delta/v_len0)*${cfac}
variable d3 equal -(v_pzz1--4.85345085623053e-08)/(v_delta/v_len0)*0.0001
variable d4 equal -(v_pyz1-${pyz0})/(v_delta/v_len0)*${cfac}
variable d4 equal -(v_pyz1--8.6556022434703e-25)/(v_delta/v_len0)*${cfac}
variable d4 equal -(v_pyz1--8.6556022434703e-25)/(v_delta/v_len0)*0.0001
variable d5 equal -(v_pxz1-${pxz0})/(v_delta/v_len0)*${cfac}
variable d5 equal -(v_pxz1--2.16390056086757e-25)/(v_delta/v_len0)*${cfac}
variable d5 equal -(v_pxz1--2.16390056086757e-25)/(v_delta/v_len0)*0.0001
variable d6 equal -(v_pxy1-${pxy0})/(v_delta/v_len0)*${cfac}
variable d6 equal -(v_pxy1-0)/(v_delta/v_len0)*${cfac}
variable d6 equal -(v_pxy1-0)/(v_delta/v_len0)*0.0001

displace_atoms all random ${atomjiggle} ${atomjiggle} ${atomjiggle} 87287 units box
displace_atoms all random 1e-05 ${atomjiggle} ${atomjiggle} 87287 units box
displace_atoms all random 1e-05 1e-05 ${atomjiggle} 87287 units box
displace_atoms all random 1e-05 1e-05 1e-05 87287 units box
Displacing atoms ...

# Write restart
unfix 3
write_restart restart.equil
System init for write_restart ...

# uxx Perturbation

variable dir equal 1
include displace.mod
# NOTE: This script should not need to be
# modified. See in.elastic for more info.
#
# Find which reference length to use

if "${dir} == 1" then    "variable len0 equal ${lx0}"
variable len0 equal ${lx0}
variable len0 equal 9.07599999684796
if "${dir} == 2" then    "variable len0 equal ${ly0}"
if "${dir} == 3" then    "variable len0 equal ${lz0}"
if "${dir} == 4" then    "variable len0 equal ${lz0}"
if "${dir} == 5" then    "variable len0 equal ${lz0}"
if "${dir} == 6" then    "variable len0 equal ${ly0}"

# Reset box and simulation parameters

clear
box tilt large
read_restart restart.equil
Reading restart file ...
  restart file = 23 Jun 2022, LAMMPS = 23 Jun 2022
  restoring atom style atomic from restart
  triclinic box = (-4.538 -4.538 -4.538) to (4.538 4.538 4.538) with tilt (0 0 0)
  1 by 1 by 1 MPI processor grid
  pair style meam stores no restart info
  64 atoms
  read_restart CPU = 0.000 seconds
include potential.mod
# NOTE: This script can be modified for different pair styles
# See in.elastic for more info.

# Choose potential
pair_style	meam
pair_coeff * * library_HfN.meam Hf N HfN.meam Hf N
Reading MEAM library file library_HfN.meam with DATE: 2015-02-12

# Setup neighbor style
neighbor 1.0 nsq
neigh_modify once no every 1 delay 0 check yes

# Setup minimization style
min_style	     cg
min_modify	     dmax ${dmax} line quadratic
min_modify	     dmax 0.01 line quadratic

# Setup output
thermo		1
thermo_style custom step temp pe press pxx pyy pzz pxy pxz pyz lx ly lz vol
thermo_modify norm no

# Negative deformation

variable delta equal -${up}*${len0}
variable delta equal -1e-06*${len0}
variable delta equal -1e-06*9.07599999684796
variable deltaxy equal -${up}*xy
variable deltaxy equal -1e-06*xy
variable deltaxz equal -${up}*xz
variable deltaxz equal -1e-06*xz
variable deltayz equal -${up}*yz
variable deltayz equal -1e-06*yz
if "${dir} == 1" then    "change_box all x delta 0 ${delta} xy delta ${deltaxy} xz delta ${deltaxz} remap units box"
change_box all x delta 0 ${delta} xy delta ${deltaxy} xz delta ${deltaxz} remap units box
change_box all x delta 0 -9.07599999684796e-06 xy delta ${deltaxy} xz delta ${deltaxz} remap units box
change_box all x delta 0 -9.07599999684796e-06 xy delta -0 xz delta ${deltaxz} remap units box
change_box all x delta 0 -9.07599999684796e-06 xy delta -0 xz delta -0 remap units box
Changing box ...
  triclinic box = (-4.538 -4.538 -4.538) to (4.5379909 4.538 4.538) with tilt (0 0 0)
  triclinic box = (-4.538 -4.538 -4.538) to (4.5379909 4.538 4.538) with tilt (0 0 0)
  triclinic box = (-4.538 -4.538 -4.538) to (4.5379909 4.538 4.538) with tilt (0 0 0)
if "${dir} == 2" then    "change_box all y delta 0 ${delta} yz delta ${deltayz} remap units box"
if "${dir} == 3" then    "change_box all z delta 0 ${delta} remap units box"
if "${dir} == 4" then    "change_box all yz delta ${delta} remap units box"
if "${dir} == 5" then    "change_box all xz delta ${delta} remap units box"
if "${dir} == 6" then    "change_box all xy delta ${delta} remap units box"

# Relax atoms positions

minimize ${etol} ${ftol} ${maxiter} ${maxeval}
minimize 0 ${ftol} ${maxiter} ${maxeval}
minimize 0 1e-10 ${maxiter} ${maxeval}
minimize 0 1e-10 500 ${maxeval}
minimize 0 1e-10 500 1000
Neighbor list info ...
  update every 1 steps, delay 0 steps, check yes
  max neighbors/atom: 2000, page size: 100000
  master list distance cutoff = 8.38
  ghost atom cutoff = 8.38
  2 neighbor lists, perpetual/occasional/extra = 2 0 0
  (1) pair meam, perpetual
      attributes: full, newton on
      pair build: full/nsq
      stencil: none
      bin: none
  (2) pair meam, perpetual, half/full from (1)
      attributes: half, newton on
      pair build: halffull/newton
      stencil: none
      bin: none
Per MPI rank memory allocation (min/avg/max) = 10.2 | 10.2 | 10.2 Mbytes
   Step          Temp          PotEng         Press           Pxx            Pyy            Pzz            Pxy            Pxz            Pyz             Lx             Ly             Lz           Volume    
         1   0             -653.44         4.1993611      4.9899909      3.8040439      3.8040486      8.788331e-06   1.0254485e-05  6.6748372e-06  9.0759909      9.076          9.076          747.62364    
         2   0             -653.44         4.1992582      4.9898893      3.8039382      3.8039471      1.1748509e-06 -1.7838803e-06  1.4055406e-07  9.0759909      9.076          9.076          747.62364    
         3   0             -653.44         4.1991812      4.9898182      3.8038628      3.8038626      3.4578111e-06  1.0620174e-06 -8.3882106e-07  9.0759909      9.076          9.076          747.62364    
         4   0             -653.44         4.1991069      4.9897392      3.803791       3.8037905      1.629186e-06  -2.7364822e-08 -3.2047857e-07  9.0759909      9.076          9.076          747.62364    
         5   0             -653.44         4.1990753      4.9897086      3.8037595      3.8037579      1.1042457e-06 -7.8908923e-07 -3.812984e-07   9.0759909      9.076          9.076          747.62364    
         6   0             -653.44         4.1990514      4.9896854      3.8037353      3.8037334      8.0251579e-07 -1.109147e-06   1.1804108e-07  9.0759909      9.076          9.076          747.62364    
         7   0             -653.44         4.1990093      4.9896446      3.8036926      3.8036906      8.3352028e-07 -1.9026083e-06 -2.1775329e-07  9.0759909      9.076          9.076          747.62364    
         8   0             -653.44         4.1988861      4.9895262      3.8035676      3.8035645      2.7193626e-06 -3.8439593e-06 -1.5305397e-06  9.0759909      9.076          9.076          747.62364    
         9   0             -653.44         4.198385       4.9890492      3.8030548      3.8030509      8.631064e-06  -1.231935e-05  -2.8309004e-06  9.0759909      9.076          9.076          747.62364    
        10   0             -653.44         3.7990191      4.6143538      3.3909596      3.391744       0.0048563963  -0.0057298348  -0.00063187244  9.0759909      9.076          9.076          747.62364    
        11   0             -653.44013     -62.869762     -57.883057     -65.438142     -65.288086      0.81837304    -0.9397161     -0.11779998     9.0759909      9.076          9.076          747.62364    
        12   0             -653.44049     -243.74222     -227.46085     -252.17157     -251.59424      3.0374407     -3.458312      -0.45820499     9.0759909      9.076          9.076          747.62364    
        13   0             -653.44106     -538.73698     -504.14487     -556.67492     -555.39117      6.6817116     -7.5527109     -1.0528066      9.0759909      9.076          9.076          747.62364    
        14   0             -653.44183     -947.74042     -887.98309     -978.7529      -976.48526      11.774667     -13.22329      -1.9367152      9.0759909      9.076          9.076          747.62364    
        15   0             -653.4428      -1471.0675     -1379.4719     -1518.6347     -1515.096       18.348475     -20.478357     -3.1654213      9.0759909      9.076          9.076          747.62364    
        16   0             -653.44407     -2111.643      -1981.547      -2179.1787     -2174.2032      26.461096     -29.316613     -4.8958442      9.0759909      9.076          9.076          747.62364    
        17   0             -653.4465      -2895.3171     -2718.0787     -2987.0663     -2980.8062      36.341957     -39.665177     -7.828246       9.0759909      9.076          9.076          747.62364    
        18   0             -653.44929     -3073.6499     -2880.4344     -3173.7725     -3166.7429      37.024139     -40.762892     -5.7082091      9.0759909      9.076          9.076          747.62364    
        19   0             -653.45689     -3965.7294     -3704.5552     -4119.551      -4073.082       31.352261     -56.488368     -1.4676723      9.0759909      9.076          9.076          747.62364    
        20   0             -653.4637      -4970.5033     -4623.3572     -5166.9213     -5121.2315      34.805625     -67.429143     -8.366598       9.0759909      9.076          9.076          747.62364    
        21   0             -653.46925     -6120.8072     -5691.1785     -6371.4166     -6299.8264      38.398365     -80.429767     -10.896981      9.0759909      9.076          9.076          747.62364    
        22   0             -653.47652     -7514.6596     -6975.7591     -7831.101      -7737.1186      45.36415      -93.700122     -12.444976      9.0759909      9.076          9.076          747.62364    
        23   0             -653.47915     -7974.0308     -7390.4991     -8310.6847     -8220.9085      46.424761     -96.819126     -11.017743      9.0759909      9.076          9.076          747.62364    
        24   0             -653.48593     -10080.029     -9331.4812     -10530.242     -10378.365      53.390758     -112.94248     -10.007329      9.0759909      9.076          9.076          747.62364    
        25   0             -653.49687     -12523.25      -11585.946     -13086.316     -12897.489      64.264255     -84.511651     -15.397735      9.0759909      9.076          9.076          747.62364    
        26   0             -653.50242     -13378.146     -12373.968     -13970.861     -13789.609      67.027546     -63.866519     -26.829777      9.0759909      9.076          9.076          747.62364    
        27   0             -653.50631     -14736.295     -13628.179     -15394.998     -15185.709      64.952244     -2.6142586     -32.304567      9.0759909      9.076          9.076          747.62364    
        28   0             -653.5174      -17552.568     -16219.95      -18347.271     -18090.482      12.75829       299.2471      -33.016258      9.0759909      9.076          9.076          747.62364    
        29   0             -653.52134     -18106.178     -16718.552     -18926.748     -18673.233     -9.0663844      401.44203     -27.348421      9.0759909      9.076          9.076          747.62364    
        30   0             -653.52745     -20239.698     -18680.332     -21171.103     -20867.659     -131.00634      913.31776     -16.558699      9.0759909      9.076          9.076          747.62364    
        31   0             -653.53616     -22387.743     -20662.406     -23410.878     -23089.947     -325.535        1688.6095     -23.018104      9.0759909      9.076          9.076          747.62364    
        32   0             -653.54653     -23595.272     -21772.489     -24652.157     -24361.171     -521.32174      2518.5315     -51.066671      9.0759909      9.076          9.076          747.62364    
        33   0             -653.55749     -24510.864     -22600.444     -25603.24      -25328.909     -787.20183      3844.0423     -74.410988      9.0759909      9.076          9.076          747.62364    
        34   0             -653.57347     -24981.67      -22982.402     -26103.273     -25859.336     -1067.068       5496.0677     -96.333515      9.0759909      9.076          9.076          747.62364    
        35   0             -653.59818     -25006.962     -22907.956     -26166.777     -25946.153     -1354.7853      7385.2605     -121.95687      9.0759909      9.076          9.076          747.62364    
        36   0             -653.6325      -24529.62      -22313.573     -25762.262     -25513.025     -1632.8427      9236.8059     -147.02004      9.0759909      9.076          9.076          747.62364    
        37   0             -653.67569     -23501.952     -21140.249     -24882.904     -24482.702     -1886.4604      10677.443     -163.75696      9.0759909      9.076          9.076          747.62364    
        38   0             -653.72476     -21873.816     -19318.437     -23538.65      -22764.36      -2104.7127      11284.442     -162.83464      9.0759909      9.076          9.076          747.62364    
        39   0             -653.77396     -19577.362     -16751.539     -21742.272     -20238.275     -2280.5158      10646.167     -134.18138      9.0759909      9.076          9.076          747.62364    
        40   0             -653.81275     -16790.03      -13623.122     -19676.557     -17070.411     -2408.4408      8742.0834     -74.322079      9.0759909      9.076          9.076          747.62364    
        41   0             -653.83675     -14851.223     -11478.158     -18207.174     -14868.338     -2567.9543      7407.5297     -27.877605      9.0759909      9.076          9.076          747.62364    
        42   0             -653.85843     -14140.478     -10772.764     -17491.813     -14156.858     -2911.3771      7586.1641     -18.938754      9.0759909      9.076          9.076          747.62364    
        43   0             -653.87775     -13036.162     -9616.5198     -16521.242     -12970.723     -3303.5973      7041.5799      21.649445      9.0759909      9.076          9.076          747.62364    
        44   0             -653.89742     -12776.821     -9428.4285     -16062.91      -12839.124     -3919.3165      7372.5482      39.225283      9.0759909      9.076          9.076          747.62364    
        45   0             -653.91339     -11488.931     -8072.1216     -14887.262     -11507.409     -4087.5253      6229.3296      126.18543      9.0759909      9.076          9.076          747.62364    
        46   0             -653.93029     -11803.59      -8504.7299     -14774.26      -12131.78      -4585.0138      7042.7737      119.21314      9.0759909      9.076          9.076          747.62364    
        47   0             -653.94454     -10530.656     -7186.4911     -13437.877     -10967.601     -4214.1512      6064.6255      215.70857      9.0759909      9.076          9.076          747.62364    
        48   0             -653.96244     -11526.85      -8302.6417     -13859.479     -12418.429     -4912.6172      7783.3203      143.0119       9.0759909      9.076          9.076          747.62364    
        49   0             -653.97993     -9966.4366     -6662.2824     -12157.756     -11079.272     -4016.473       7208.8091      232.41281      9.0759909      9.076          9.076          747.62364    
        50   0             -654.00676     -10539.458     -7215.6786     -12498.074     -11904.622     -4856.3952      9351.7044      157.50191      9.0759909      9.076          9.076          747.62364    
        51   0             -654.03813     -10760.628     -7356.1744     -12710.121     -12215.587     -5787.0222      11614.879      102.93795      9.0759909      9.076          9.076          747.62364    
        52   0             -654.07839     -9925.2537     -6373.9041     -11975.604     -11426.253     -6258.1647      13358.122      91.61188       9.0759909      9.076          9.076          747.62364    
        53   0             -654.12672     -8622.6037     -4881.2261     -10867.719     -10118.866     -6772.6181      14789.866      83.546421      9.0759909      9.076          9.076          747.62364    
        54   0             -654.18164     -6950.2751     -2967.0992     -9522.3782     -8361.3479     -7502.7777      15715.677      67.025588      9.0759909      9.076          9.076          747.62364    
        55   0             -654.24382     -4524.2147     -202.64493     -7632.7888     -5737.2104     -8411.0291      15772.071      47.274599      9.0759909      9.076          9.076          747.62364    
        56   0             -654.3005      -2000.3951      2662.1813     -5623.6477     -3039.7188     -9232.807       15428.26       31.472367      9.0759909      9.076          9.076          747.62364    
        57   0             -654.35221      207.02338      5143.6396     -3733.2155     -789.3539      -9757.472       15296.627      32.739531      9.0759909      9.076          9.076          747.62364    
        58   0             -654.40369      2514.126       7696.5844     -1631.064       1476.8576     -9845.8259      15044.643      74.456792      9.0759909      9.076          9.076          747.62364    
        59   0             -654.45359      5311.13        10746.423      982.13866      4204.8286     -9290.4301      14176.554      188.19489      9.0759909      9.076          9.076          747.62364    
        60   0             -654.49203      8448.7033      14121.124      3918.5486      7306.4374     -8054.9066      12518.772      376.09587      9.0759909      9.076          9.076          747.62364    
        61   0             -654.51778      10674.219      16454.212      5983.5091      9584.9349     -7023.6612      11171.554      502.8705       9.0759909      9.076          9.076          747.62364    
        62   0             -654.54446      11045.65       16734.763      6302.6805      10099.506     -7105.8382      11282.789      441.63059      9.0759909      9.076          9.076          747.62364    
        63   0             -654.56517      13052.257      18716.123      8277.2089      12163.438     -5682.8174      9679.5369      582.47316      9.0759909      9.076          9.076          747.62364    
        64   0             -654.57991      11504.58       17017.616      6819.8813      10676.243     -6670.6027      10977.747      404.95365      9.0759909      9.076          9.076          747.62364    
        65   0             -654.59936      12887.629      18364.992      8241.9094      12055.987     -5409.9798      9556.4337      482.7516       9.0759909      9.076          9.076          747.62364    
        66   0             -654.61567      10601.591      15997.444      6068.2986      9739.0295     -6690.6792      10937.425      303.87042      9.0759909      9.076          9.076          747.62364    
        67   0             -654.63542      11813.479      17237.58       7337.4511      10865.406     -5517.2796      9356.7104      401.30395      9.0759909      9.076          9.076          747.62364    
        68   0             -654.65245      11371.086      16886.02       6922.5617      10304.677     -5751.177       9119.2153      394.07709      9.0759909      9.076          9.076          747.62364    
        69   0             -654.6674       12062.113      17626.476      7605.0814      10954.783     -5347.8186      8021.965       416.1904       9.0759909      9.076          9.076          747.62364    
        70   0             -654.68878      11632.456      17252.087      7195.348       10449.933     -5958.0827      7882.0163      413.93548      9.0759909      9.076          9.076          747.62364    
        71   0             -654.70056      10817.922      16503.491      6475.7117      9474.562      -6854.6139      8369.2285      425.65412      9.0759909      9.076          9.076          747.62364    
        72   0             -654.72021      10939.124      16668.334      6611.6721      9537.3673     -7479.7509      8106.0734      455.18608      9.0759909      9.076          9.076          747.62364    
        73   0             -654.74822      12538.425      18216.281      8145.6898      11253.302     -7449.4625      6672.8343      559.22842      9.0759909      9.076          9.076          747.62364    
        74   0             -654.77346      13450.008      19138.92       9095.4662      12115.639     -7853.4305      5908.4064      657.2957       9.0759909      9.076          9.076          747.62364    
        75   0             -654.80392      13654.241      19413.182      9441.279       12108.263     -8673.6259      5943.1019      711.97491      9.0759909      9.076          9.076          747.62364    
        76   0             -654.83423      14954.271      20678.211      11018.864      13165.737     -8388.8374      5275.6603      867.00398      9.0759909      9.076          9.076          747.62364    
        77   0             -654.86563      16338.758      22023.552      12833.938      14158.783     -7738.4134      4728.3905      989.24755      9.0759909      9.076          9.076          747.62364    
        78   0             -654.90225      17948.528      23624.103      15105.786      15115.694     -6524.4381      4283.1726      1053.5536      9.0759909      9.076          9.076          747.62364    
        79   0             -654.94341      18924.935      24592.683      16707.369      15474.752     -5476.3709      4161.6987      965.42351      9.0759909      9.076          9.076          747.62364    
        80   0             -654.9779       19989.036      25642.226      18158.91       16165.97      -4009.6229      3667.5023      947.10703      9.0759909      9.076          9.076          747.62364    
        81   0             -655.00973      20042.566      25663.831      18485.76       15978.106     -3154.0542      3900.492       853.3148       9.0759909      9.076          9.076          747.62364    
        82   0             -655.04249      20698.07       26315.324      19345.856      16433.029     -1878.8641      3733.8672      835.34063      9.0759909      9.076          9.076          747.62364    
        83   0             -655.07752      21313.372      26941.535      20152.063      16846.518     -845.11328      3732.8933      818.85206      9.0759909      9.076          9.076          747.62364    
        84   0             -655.11488      22093.277      27760.287      21143.044      17376.502     -189.0126       3786.9509      801.27655      9.0759909      9.076          9.076          747.62364    
        85   0             -655.15304      23151.445      28900.448      22458.078      18095.81      -80.628867      3833.5768      790.9193       9.0759909      9.076          9.076          747.62364    
        86   0             -655.18957      24471.56       30356.761      24101.802      18956.118     -677.23054      3883.7126      789.15431      9.0759909      9.076          9.076          747.62364    
        87   0             -655.2231       25982.415      32057.085      26007.043      19883.117     -1947.1232      3938.3294      796.17688      9.0759909      9.076          9.076          747.62364    
        88   0             -655.24961      26894.031      33081.901      27179.073      20421.117     -2803.445       3949.8717      806.26128      9.0759909      9.076          9.076          747.62364    
        89   0             -655.27532      27298.292      33510.538      27695.272      20689.067     -2938.445       3864.2386      829.32898      9.0759909      9.076          9.076          747.62364    
        90   0             -655.30216      27684.513      33941.985      28162.998      20948.556     -2995.449       3727.5923      893.74702      9.0759909      9.076          9.076          747.62364    
        91   0             -655.33328      28038.678      34386.434      28560.531      21169.069     -2902.9354      3523.7258      1088.8725      9.0759909      9.076          9.076          747.62364    
        92   0             -655.37526      28570.026      35119.335      29086.196      21504.547     -2646.3806      3163.2724      1458.0154      9.0759909      9.076          9.076          747.62364    
        93   0             -655.41815      29236.52       36047.173      29676.667      21985.721     -2234.6956      2771.1422      1807.1349      9.0759909      9.076          9.076          747.62364    
        94   0             -655.46694      30279.395      37399.538      30574.357      22864.29      -1784.05        2380.2435      2124.6336      9.0759909      9.076          9.076          747.62364    
        95   0             -655.52385      31838.423      39296.424      31897.45       24321.394     -1367.7582      2143.9607      2411.9001      9.0759909      9.076          9.076          747.62364    
        96   0             -655.58814      34082.475      41881.649      33785.208      26580.568     -1100.285       2275.804       2680.3162      9.0759909      9.076          9.076          747.62364    
        97   0             -655.65463      37184.563      45292.721      36381.962      29879.005     -1163.3277      2957.6694      2895.3166      9.0759909      9.076          9.076          747.62364    
        98   0             -655.7077       40685.95       49005.567      39326.752      33725.529     -1669.9613      3878.6887      2981.8065      9.0759909      9.076          9.076          747.62364    
        99   0             -655.74503      43856.881      52289.385      42059.525      37221.734     -2418.8682      4224.9258      2919.9252      9.0759909      9.076          9.076          747.62364    
       100   0             -655.77852      45218.203      53719.227      43367.715      38567.668     -2691.814       3327.7081      2790.9319      9.0759909      9.076          9.076          747.62364    
       101   0             -655.81083      45643.899      54166.711      43923.447      38841.538     -2603.945       2761.9601      2745.9289      9.0759909      9.076          9.076          747.62364    
       102   0             -655.84155      46509.621      54946.032      44766.326      39816.506     -2967.6426      2811.9141      2687.3011      9.0759909      9.076          9.076          747.62364    
       103   0             -655.87261      44555.216      53096.584      43219.518      37349.547     -1873.1281      1978.774       2636.3072      9.0759909      9.076          9.076          747.62364    
       104   0             -655.90669      47052.412      55385.267      45380.034      40391.935     -2672.3474      2520.3833      2555.5099      9.0759909      9.076          9.076          747.62364    
       105   0             -655.93424      46592.457      54951.947      44970.748      39854.677     -2086.1265      2424.7926      2451.8862      9.0759909      9.076          9.076          747.62364    
       106   0             -655.95964      47423.572      55787.769      45726.352      40756.595     -1558.4724      2210.8345      2368.0209      9.0759909      9.076          9.076          747.62364    
       107   0             -655.98531      47705.259      56072.168      45999.045      41044.564     -1031.9825      2066.7499      2250.7055      9.0759909      9.076          9.076          747.62364    
       108   0             -656.01207      48698.961      57057.586      47000.12       42039.177     -545.87343      1743.7232      2152.5144      9.0759909      9.076          9.076          747.62364    
       109   0             -656.04008      49438.23       57787.696      47847.253      42679.742     -290.76348      1511.6389      2027.6938      9.0759909      9.076          9.076          747.62364    
       110   0             -656.06972      50603.878      58948.321      49189.239      43674.074     -253.74224      1230.2801      1918.3281      9.0759909      9.076          9.076          747.62364    
       111   0             -656.10314      51610.606      59971.212      50477.719      44382.888     -523.33419      1168.153       1798.9919      9.0759909      9.076          9.076          747.62364    
       112   0             -656.14101      53002.971      61423.207      52100.321      45485.384     -681.9925       1174.594       1730.6107      9.0759909      9.076          9.076          747.62364    
       113   0             -656.18025      53257.881      61752.878      52466.731      45554.034     -1146.4976      1394.0206      1605.8253      9.0759909      9.076          9.076          747.62364    
       114   0             -656.21988      55575.569      64194.234      54669.08       47863.394     -946.46812      409.42687      1616.038       9.0759909      9.076          9.076          747.62364    
       115   0             -656.26673      55405.038      64126.702      54384.375      47704.037     -1852.9987      233.61791      1459.5472      9.0759909      9.076          9.076          747.62364    
       116   0             -656.31335      57668.806      66550.124      56396.282      50060.013     -1728.4196     -965.13586      1458.2535      9.0759909      9.076          9.076          747.62364    
       117   0             -656.35963      59491.334      68493.127      57890.189      52090.686     -1930.2228     -1386.1339      1458.7137      9.0759909      9.076          9.076          747.62364    
       118   0             -656.40572      61636.851      70731.063      59590.851      54588.639     -2157.0659     -1066.2235      1509.4865      9.0759909      9.076          9.076          747.62364    
       119   0             -656.44736      64150.618      73294.197      61561.893      57595.763     -2279.9894     -228.34477      1641.9151      9.0759909      9.076          9.076          747.62364    
       120   0             -656.48505      65830.672      74971.194      62865.017      59655.806     -2363.2998      164.30549      1794.5998      9.0759909      9.076          9.076          747.62364    
       121   0             -656.52923      67235.981      76328.021      64109.737      61270.184     -2101.9123     -439.81784      1908.8         9.0759909      9.076          9.076          747.62364    
       122   0             -656.58127      68566.344      77527.205      65351.507      62820.32      -1780.6905     -1023.9444      1946.1529      9.0759909      9.076          9.076          747.62364    
       123   0             -656.63907      70691.544      79500.984      67576.277      64997.371     -623.32752     -2417.0215      1939.8513      9.0759909      9.076          9.076          747.62364    
       124   0             -656.69275      71611.619      80249.718      68558.341      66026.797     -387.60647     -2993.6939      1895.8034      9.0759909      9.076          9.076          747.62364    
       125   0             -656.74343      73766.9        82266.822      70808.699      68225.18       553.01705     -3953.7937      1880.4319      9.0759909      9.076          9.076          747.62364    
       126   0             -656.79179      74972.375      83321.606      71960.099      69635.421      467.43838     -4039.0423      1898.6151      9.0759909      9.076          9.076          747.62364    
       127   0             -656.83897      77050.627      85267.749      73907.822      71976.311      739.38451     -3882.9311      1985.4451      9.0759909      9.076          9.076          747.62364    
       128   0             -656.88199      78300.412      86375.638      74911.346      73614.25       606.63904     -3358.0536      2132.4535      9.0759909      9.076          9.076          747.62364    
       129   0             -656.91868      79796.679      87729.718      76279.846      75380.472      1305.3989     -3560.2148      2225.6228      9.0759909      9.076          9.076          747.62364    
       130   0             -656.95374      80340.362      88083.73       76653.226      76284.13       1167.7786     -3503.5013      2334.6848      9.0759909      9.076          9.076          747.62364    
       131   0             -656.9893       82532.432      90138.054      78811.166      78648.075      2224.2096     -4059.643       2374.088       9.0759909      9.076          9.076          747.62364    
       132   0             -657.02739      81804.452      89116.128      77812.273      78484.955      953.42156     -3851.3087      2523.74        9.0759909      9.076          9.076          747.62364    
       133   0             -657.06667      86070.218      93307.263      82102.731      82800.661      2988.5507     -4825.9929      2451.726       9.0759909      9.076          9.076          747.62364    
       134   0             -657.10372      85542.14       92492.201      81346.556      82787.661      1950.8841     -4879.5783      2636.8391      9.0759909      9.076          9.076          747.62364    
       135   0             -657.1366       87616.932      94455.621      83378.459      85016.715      2197.3106     -5359.7959      2539.4764      9.0759909      9.076          9.076          747.62364    
       136   0             -657.16885      86478.995      92989.737      82199.779      84247.469      852.831       -5398.6084      2604.3464      9.0759909      9.076          9.076          747.62364    
       137   0             -657.20344      91219.919      97778.477      87064.113      88817.166      1317.6592     -6343.7894      2252.6582      9.0759909      9.076          9.076          747.62364    
       138   0             -657.23742      90745.164      96974.917      86619.868      88640.707      508.87938     -5960.3939      2202.4886      9.0759909      9.076          9.076          747.62364    
       139   0             -657.2662       92148.675      98236.411      87881.351      90328.264      115.42735     -6721.2834      1839.6051      9.0759909      9.076          9.076          747.62364    
       140   0             -657.2898       91108.327      96989.715      87014.283      89320.983      2028.722      -5411.6062      1760.2309      9.0759909      9.076          9.076          747.62364    
       141   0             -657.31615      94799.678      100618.98      90533.914      93246.143      81.479054     -6477.8448      1473.1908      9.0759909      9.076          9.076          747.62364    
       142   0             -657.34065      94148.886      99778.324      90082.311      92586.024      1018.4407     -5930.9485      1269.1671      9.0759909      9.076          9.076          747.62364    
       143   0             -657.36417      96188.605      101712.45      92230.348      94623.022      1552.7979     -5680.9739      966.85264      9.0759909      9.076          9.076          747.62364    
       144   0             -657.38758      95531.801      100883.87      91805.412      93906.117      1515.7964     -5374.9295      871.17735      9.0759909      9.076          9.076          747.62364    
       145   0             -657.41197      98720.929      103981.48      95212.09       96969.216      2053.9571     -5131.7737      466.31599      9.0759909      9.076          9.076          747.62364    
       146   0             -657.43676      97691.833      102756.92      94555.615      95762.966      2316.2233     -4660.0897      374.41616      9.0759909      9.076          9.076          747.62364    
       147   0             -657.4625       101021.38      105952.41      98308.045      98803.68       2735.6334     -4625.3186     -76.72371       9.0759909      9.076          9.076          747.62364    
       148   0             -657.48962      99422.006      104122.47      97320.004      96823.54       3514.9651     -4240.1747     -132.64283      9.0759909      9.076          9.076          747.62364    
       149   0             -657.51943      104561.56      109059.99      103166.02      101458.66      4017.9957     -4462.6275     -645.84424      9.0759909      9.076          9.076          747.62364    
       150   0             -657.54646      103257.32      107619.14      102398.11      99754.711      4626.9773     -4490.3858     -595.45967      9.0759909      9.076          9.076          747.62364    
       151   0             -657.57001      103601.51      107839.04      102990.38      99975.102      5245.543      -4282.5738     -583.70027      9.0759909      9.076          9.076          747.62364    
       152   0             -657.59344      104732.05      108876.75      104371.24      100948.15      4844.9936     -4683.7797     -682.28929      9.0759909      9.076          9.076          747.62364    
       153   0             -657.61635      105275.62      109278.46      105190.76      101357.63      6130.0137     -4039.6168     -642.49199      9.0759909      9.076          9.076          747.62364    
       154   0             -657.63918      105518.38      109492.58      105592.22      101470.34      5859.2738     -4704.1423     -620.85915      9.0759909      9.076          9.076          747.62364    
       155   0             -657.66084      107128.32      110967.75      107396.46      103020.77      6639.8472     -3910.0115     -640.32728      9.0759909      9.076          9.076          747.62364    
       156   0             -657.68203      106482.23      110384.09      106773.61      102289         5906.4495     -5039.0635     -462.14562      9.0759909      9.076          9.076          747.62364    
       157   0             -657.70539      108311.5       112083.16      108765.1       104086.24      6614.2997     -4186.7305     -451.51811      9.0759909      9.076          9.076          747.62364    
       158   0             -657.72904      108684.04      112471.26      109148.59      104432.28      6101.6792     -4585.6236     -345.75313      9.0759909      9.076          9.076          747.62364    
       159   0             -657.75493      110387.43      114074.87      110956.77      106130.65      6313.8563     -3986.6003     -301.53042      9.0759909      9.076          9.076          747.62364    
       160   0             -657.78129      110629.19      114374.22      111163.86      106349.49      5235.7625     -4589.163      -213.75815      9.0759909      9.076          9.076          747.62364    
       161   0             -657.80909      112663.77      116255.9       113411.96      108323.44      5534.3732     -3898.78       -269.20309      9.0759909      9.076          9.076          747.62364    
       162   0             -657.83398      113355.76      116926.01      114263.43      108877.84      5036.8073     -4234.2922     -239.45838      9.0759909      9.076          9.076          747.62364    
       163   0             -657.8605       115953.12      119251.83      117424.7       111182.84      6243.0708     -3393.3078     -333.22223      9.0759909      9.076          9.076          747.62364    
       164   0             -657.88197      115584.84      118978.66      117110.15      110665.72      5157.6135     -4353.8015     -106.52977      9.0759909      9.076          9.076          747.62364    
       165   0             -657.90882      118054.62      121178.77      120133.07      112852         6667.8685     -3351.0488      26.947917      9.0759909      9.076          9.076          747.62364    
       166   0             -657.93259      118023.12      121143.21      119978.96      112947.2       5738.0021     -3986.1117      433.23168      9.0759909      9.076          9.076          747.62364    
       167   0             -657.95515      119841.63      122739.55      122070.38      114714.97      7529.2707     -2701.2466      653.65106      9.0759909      9.076          9.076          747.62364    
       168   0             -657.97879      120212.61      123013.47      122274.6       115349.75      6751.5504     -3485.7694      1045.5064      9.0759909      9.076          9.076          747.62364    
       169   0             -658.00076      120378         123235.02      122294.91      115604.07      8274.1617     -2412.8716      1319.0936      9.0759909      9.076          9.076          747.62364    
       170   0             -658.02152      122379.34      124940.84      124306.56      117890.63      6623.7388     -4052.521       1844.7124      9.0759909      9.076          9.076          747.62364    
       171   0             -658.04572      122695.28      125280.8       124401.56      118403.47      7473.7282     -3248.8943      2224.2271      9.0759909      9.076          9.076          747.62364    
       172   0             -658.05195      121635.61      124491.53      123155.36      117259.94      9689.4506     -1490.9736      2198.7523      9.0759909      9.076          9.076          747.62364    
       173   0             -658.07874      122545.17      125448.83      123857.2       118329.48      10526.08      -1045.2273      2703.1775      9.0759909      9.076          9.076          747.62364    
       174   0             -658.08667      123377.13      126049.86      124697.33      119384.2       8443.1928     -2412.6106      2909.738       9.0759909      9.076          9.076          747.62364    
       175   0             -658.10838      123698.43      126526.78      124738.38      119830.13      8440.6423     -1570.5207      3242.2697      9.0759909      9.076          9.076          747.62364    
       176   0             -658.11973      123678.59      126864.69      124518.65      119652.43      11266.796     -148.60387      3362.3822      9.0759909      9.076          9.076          747.62364    
       177   0             -658.13543      124299.11      127604.79      124851.94      120440.61      12023.556     -121.38462      3650.6484      9.0759909      9.076          9.076          747.62364    
       178   0             -658.14947      124376.36      127481.38      124775.37      120872.33      9921.0013     -841.3875       3758.0442      9.0759909      9.076          9.076          747.62364    
       179   0             -658.1652       124502.54      127892.93      124693.46      120921.22      10058.236      321.03815      3919.3132      9.0759909      9.076          9.076          747.62364    
       180   0             -658.18069      125854.54      129347.88      125878.08      122337.65      10802.651     -399.25748      4175.0021      9.0759909      9.076          9.076          747.62364    
       181   0             -658.19751      125202.31      128893.78      124791.61      121921.55      10695.781      160.68089      4128.0317      9.0759909      9.076          9.076          747.62364    
       182   0             -658.21215      126295.5       130044.58      125906.72      122935.21      9516.0224      507.48305      4278.03        9.0759909      9.076          9.076          747.62364    
       183   0             -658.22932      125849.3       129878.98      124966.08      122702.84      10458.867      495.79202      4153.6496      9.0759909      9.076          9.076          747.62364    
       184   0             -658.24614      126438.6       130512.91      125404.52      123398.37      9412.6294      462.67205      4319.4354      9.0759909      9.076          9.076          747.62364    
       185   0             -658.26407      126562.61      130942.14      125259.77      123485.91      9815.8611      822.13474      4124.2437      9.0759909      9.076          9.076          747.62364    
       186   0             -658.2847       127370         131724.33      125967.79      124417.87      8720.7832      463.86242      4395.4213      9.0759909      9.076          9.076          747.62364    
       187   0             -658.30797      127492.21      132146.95      125821.66      124508.02      8586.6319      759.07803      4181.4942      9.0759909      9.076          9.076          747.62364    
       188   0             -658.33494      128444.39      133059.1       126757.42      125516.64      7634.565       270.52783      4378.9161      9.0759909      9.076          9.076          747.62364    
       189   0             -658.3624       128859.67      133782.8       126895.34      125900.87      7383.6734      817.89496      3985.632       9.0759909      9.076          9.076          747.62364    
       190   0             -658.38853      129601.2       134401.29      127600.5       126801.82      6401.144       393.43305      4394.8184      9.0759909      9.076          9.076          747.62364    
       191   0             -658.41434      130395.26      135423.23      128199.96      127562.59      6202.1395      641.84028      4162.8213      9.0759909      9.076          9.076          747.62364    
       192   0             -658.43996      131116.51      136142.39      128836.69      128370.44      5678.8245      406.31211      4414.3799      9.0759909      9.076          9.076          747.62364    
       193   0             -658.46684      132069.72      137339.81      129604.39      129264.95      5800.1769      799.36327      4130.4363      9.0759909      9.076          9.076          747.62364    
       194   0             -658.49499      132840.88      138048.79      130334.84      130139         5350.0458      436.2792       4609.7982      9.0759909      9.076          9.076          747.62364    
       195   0             -658.52287      133988.68      139529.91      131287.87      131148.25      5855.133       1181.4915      4135.0506      9.0759909      9.076          9.076          747.62364    
       196   0             -658.55091      134715.98      140200.73      131987.57      131959.64      5446.0278      896.53919      4633.0292      9.0759909      9.076          9.076          747.62364    
       197   0             -658.57869      136021.76      141817.26      133141.92      133106.11      5986.8376      1778.9273      4161.5362      9.0759909      9.076          9.076          747.62364    
       198   0             -658.60719      136787.27      142505.09      133883.11      133973.59      5530.4691      1346.2982      4819.2225      9.0759909      9.076          9.076          747.62364    
       199   0             -658.63614      138341.73      144425         135274.97      135325.23      6301.1688      2405.6415      4281.426       9.0759909      9.076          9.076          747.62364    
       200   0             -658.66702      139266.62      145304.46      136124.13      136371.26      6035.5982      1847.8974      5035.2885      9.0759909      9.076          9.076          747.62364    
       201   0             -658.69962      141079.07      147536.15      137735.65      137965.42      7157.5667      3040.3851      4526.8409      9.0759909      9.076          9.076          747.62364    
       202   0             -658.73416      142188.43      148588.59      138726.24      139250.44      7179.2152      2184.7414      5360.9528      9.0759909      9.076          9.076          747.62364    
       203   0             -658.7662       143864.53      150657.5       140209.51      140726.56      8247.2511      3245.8366      5038.6455      9.0759909      9.076          9.076          747.62364    
       204   0             -658.79624      145118.53      151917.39      141362.64      142075.57      8320.7302      2528.3106      5731.076       9.0759909      9.076          9.076          747.62364    
       205   0             -658.82645      146755.67      154114.9       142758.54      143393.57      8867.6107      3859.0998      5311.2529      9.0759909      9.076          9.076          747.62364    
       206   0             -658.85659      147991.83      155339.8       143868.62      144767.07      8001.7251      2348.8262      6372.9946      9.0759909      9.076          9.076          747.62364    
       207   0             -658.88681      149425.52      157454.4       144932.44      145889.73      8056.7719      3493.1958      6056.9865      9.0759909      9.076          9.076          747.62364    
       208   0             -658.91243      150393.03      158400.27      145644.56      147134.28      7341.2758      1983.6316      6830.2715      9.0759909      9.076          9.076          747.62364    
       209   0             -658.9351       151322.27      160031.25      146147.99      147787.57      7460.707       3455.7903      6378.8479      9.0759909      9.076          9.076          747.62364    
       210   0             -658.95555      152288.86      160965.58      146889.94      149011.06      7024.2687      2509.8534      6836.1051      9.0759909      9.076          9.076          747.62364    
       211   0             -658.97173      152633.12      161740.84      146857.31      149301.22      6809.1011      3008.9883      6786.8881      9.0759909      9.076          9.076          747.62364    
       212   0             -658.98564      153740.68      162570.32      147875.88      150775.83      6657.0756      2070.8616      6909.5231      9.0759909      9.076          9.076          747.62364    
       213   0             -659.0013       153865.3       163226.7       147606.46      150762.75      6450.5228      2746.0463      6703.83        9.0759909      9.076          9.076          747.62364    
       214   0             -659.01544      154614.19      163997.08      148154.83      151690.66      6223.3198      2520.0888      6798.2482      9.0759909      9.076          9.076          747.62364    
       215   0             -659.02804      154823.32      164770.42      147968.25      151731.28      6083.2114      2768.5686      6450.0147      9.0759909      9.076          9.076          747.62364    
       216   0             -659.04282      155825.08      165520.57      148910.96      153043.71      5786.2919      2667.2581      6682.5387      9.0759909      9.076          9.076          747.62364    
       217   0             -659.05604      156027.66      166096.03      148789.68      153197.28      5590.389       2304.185       6609.016       9.0759909      9.076          9.076          747.62364    
       218   0             -659.06827      157207.39      167002.48      149950.44      154669.23      5351.3299      3285.492       6683.2816      9.0759909      9.076          9.076          747.62364    
       219   0             -659.08185      157249.47      167455.92      149708.3       154584.18      5122.0261      2562.8443      6381.3781      9.0759909      9.076          9.076          747.62364    
       220   0             -659.09641      158178.73      168285.42      150566.49      155684.29      4872.6284      3232.1758      6311.8213      9.0759909      9.076          9.076          747.62364    
       221   0             -659.10908      158238.03      168592.46      150294.73      155826.91      4328.4221      2328.0386      6038.7177      9.0759909      9.076          9.076          747.62364    
       222   0             -659.12588      159540.14      169996.49      151612.17      157011.77      3824.3798      2378.4217      6149.7057      9.0759909      9.076          9.076          747.62364    
       223   0             -659.14023      161349.14      171550.83      153659.89      158836.72      4275.0138      3501.8138      6109.6097      9.0759909      9.076          9.076          747.62364    
       224   0             -659.15706      161742.59      172036.97      153876.84      159313.96      2507.8845      1812.3358      6368.7419      9.0759909      9.076          9.076          747.62364    
       225   0             -659.17082      163039.67      173901.47      155228.41      159989.13      1979.219       2936.2727      5802.5969      9.0759909      9.076          9.076          747.62364    
       226   0             -659.18706      164644.27      175437.64      156941.27      161553.9       1477.849       2571.8369      6003.0668      9.0759909      9.076          9.076          747.62364    
       227   0             -659.1961       165046.77      175180.16      157324.6       162635.54      1454.3772      1062.4217      6626.6423      9.0759909      9.076          9.076          747.62364    
       228   0             -659.20617      165000.3       175184.05      157384.71      162432.14      1418.1627      2339.9611      5703.1547      9.0759909      9.076          9.076          747.62364    
       229   0             -659.22429      166115.15      176129.53      158807.45      163408.47      816.95961      2898.1391      5572.2436      9.0759909      9.076          9.076          747.62364    
       230   0             -659.23485      167691.6       177345.06      160595.69      165134.05      443.15156      1268.5631      6439.3205      9.0759909      9.076          9.076          747.62364    
       231   0             -659.24159      168550.67      178784.91      161494.09      165373.01      957.06224      1544.3671      5707.2459      9.0759909      9.076          9.076          747.62364    
       232   0             -659.26005      169826.21      180092.32      162711.59      166674.71      1063.5476      1181.7492      5728.8029      9.0759909      9.076          9.076          747.62364    
       233   0             -659.27303      170049.94      179243.68      163450.77      167455.37      303.4437       1014.1775      6850.8603      9.0759909      9.076          9.076          747.62364    
       234   0             -659.28437      170045         179045.37      164167.32      166922.3       915.29094      2686.6497      6311.276       9.0759909      9.076          9.076          747.62364    
       235   0             -659.30362      172664.63      181770.2       167413.55      168810.13      3049.9173      2418.2003      5424.3869      9.0759909      9.076          9.076          747.62364    
       236   0             -659.31922      175192.56      183505.75      170251.08      171820.85      2145.0957     -43.116082      5764.14        9.0759909      9.076          9.076          747.62364    
       237   0             -659.33329      176411.88      184872.1       171733.21      172630.33      1290.9064      175.26808      4649.0138      9.0759909      9.076          9.076          747.62364    
       238   0             -659.34323      176019.57      185122.32      171479.47      171456.9       2532.7487      2592.6564      3562.7574      9.0759909      9.076          9.076          747.62364    
       239   0             -659.35316      177075.02      185346.92      173305.28      172572.87      4025.2323      2720.7168      4457.3332      9.0759909      9.076          9.076          747.62364    
       240   0             -659.36329      178904.09      185979.11      175958.82      174774.34      2754.1723      698.12667      4984.8866      9.0759909      9.076          9.076          747.62364    
       241   0             -659.37871      180359.8       187444.59      178297.72      175337.08      1237.0174      653.94061      3488.3326      9.0759909      9.076          9.076          747.62364    
       242   0             -659.38832      180640.35      188487.85      178596         174837.2       2116.9575      2100.144       2751.8526      9.0759909      9.076          9.076          747.62364    
       243   0             -659.39748      181819.73      189299.82      180103.49      176055.87      2228.2964      1508.492       3028.6177      9.0759909      9.076          9.076          747.62364    
       244   0             -659.4133       183028.28      189570.22      182088.88      177425.75      772.78503      330.62718      3065.5022      9.0759909      9.076          9.076          747.62364    
       245   0             -659.42528      183422.64      190106.77      183116.16      177044.97      115.42961      1302.9707      2084.9436      9.0759909      9.076          9.076          747.62364    
       246   0             -659.43785      184039.6       190515.85      184102.53      177500.42      282.45547      1177.5772      2337.3497      9.0759909      9.076          9.076          747.62364    
       247   0             -659.44926      184719.99      190966.63      185134.74      178058.6       61.256283      824.74084      2267.0286      9.0759909      9.076          9.076          747.62364    
       248   0             -659.46078      185214.72      191619.04      185900.27      178124.86     -335.80303      1404.5428      1810.1355      9.0759909      9.076          9.076          747.62364    
       249   0             -659.47212      185982.3       192130.24      186754.9       179061.77     -412.52284      805.7518       2130.9795      9.0759909      9.076          9.076          747.62364    
       250   0             -659.48323      186303.67      192953.36      187255.82      178701.83     -799.71379      1700.8891      1058.6235      9.0759909      9.076          9.076          747.62364    
       251   0             -659.49465      187092.29      193635.76      187866.57      179774.54     -794.70876      1331.9584      1520.8153      9.0759909      9.076          9.076          747.62364    
       252   0             -659.50539      187499.19      194484.34      188257.19      179756.04     -1090.8935      1797.8859      512.56473      9.0759909      9.076          9.076          747.62364    
       253   0             -659.51551      188345.74      195263.71      188661.12      181112.39     -903.3238       1361.6692      1106.4466      9.0759909      9.076          9.076          747.62364    
       254   0             -659.52687      188689.5       196162.71      188925.53      180980.25     -1249.9075      1959.9647     -103.88828      9.0759909      9.076          9.076          747.62364    
       255   0             -659.53846      189487.1       196875.6       189303.29      182282.4      -1241.1351      1256.659      -152.02745      9.0759909      9.076          9.076          747.62364    
       256   0             -659.5495       189689.64      198084.39      189325.83      181658.71     -1863.5258      2902.8482     -1887.3893      9.0759909      9.076          9.076          747.62364    
       257   0             -659.56224      190456.08      199122.28      189751.48      182494.49     -1941.9198      2765.2564     -2584.0569      9.0759909      9.076          9.076          747.62364    
       258   0             -659.56637      191066.05      199196.53      190347.02      183654.62     -1638.7361      1240.4867     -2220.3376      9.0759909      9.076          9.076          747.62364    
       259   0             -659.57695      192552.41      201124.08      192016.3       184516.85     -2080.7899      1586.5272     -3343.38        9.0759909      9.076          9.076          747.62364    
       260   0             -659.58983      192785.61      202219.94      191809.92      184326.95     -1522.1451      1901.2945     -3972.8392      9.0759909      9.076          9.076          747.62364    
       261   0             -659.59626      193538.55      202377.93      192292.05      185945.66     -1099.4675     -546.76066     -3697.6997      9.0759909      9.076          9.076          747.62364    
       262   0             -659.60226      194027.43      202741.96      192643.42      186696.92     -1030.9248     -940.02709     -4027.5881      9.0759909      9.076          9.076          747.62364    
       263   0             -659.60897      193848.51      203292.04      192605.58      185647.9      -1393.6745      1556.5716     -4907.711       9.0759909      9.076          9.076          747.62364    
       264   0             -659.61412      195021.69      204751.13      193775.14      186538.81     -613.88758      2260.3462     -5467.2985      9.0759909      9.076          9.076          747.62364    
       265   0             -659.62028      196419.66      206098.06      195185.5       187975.42      330.15823     -526.31692     -5311.1173      9.0759909      9.076          9.076          747.62364    
       266   0             -659.62854      196821.26      207030.09      195701.95      187731.74      345.12465     -234.66558     -5863.69        9.0759909      9.076          9.076          747.62364    
       267   0             -659.63587      197229.73      207216.92      195995.17      188477.12      853.04086      1556.9389     -6112.4577      9.0759909      9.076          9.076          747.62364    
       268   0             -659.64217      197852.88      207477.38      196740.8       189340.47      1463.4593      1609.5706     -6110.6168      9.0759909      9.076          9.076          747.62364    
       269   0             -659.64614      198368.78      208171.33      197448.45      189486.55      1784.2566     -49.259772     -6056.0979      9.0759909      9.076          9.076          747.62364    
       270   0             -659.64923      199487.09      209412.36      198629.46      190419.46      2694.008      -1458.6024     -6049.7694      9.0759909      9.076          9.076          747.62364    
       271   0             -659.65432      200074.3       210245.34      199413.29      190564.26      2972.2493      729.99139     -6760.2489      9.0759909      9.076          9.076          747.62364    
       272   0             -659.66261      200704.14      210289.14      200433.1       191390.19      3369.9792      298.27992     -6684.7947      9.0759909      9.076          9.076          747.62364    
       273   0             -659.66598      201039.75      210378.03      200810.07      191931.14      4049.5932     -1090.7229     -5962.3415      9.0759909      9.076          9.076          747.62364    
       274   0             -659.66788      201063.23      210437.36      200956.92      191795.42      4333.1663     -535.67085     -6392.838       9.0759909      9.076          9.076          747.62364    
       275   0             -659.67071      201348.24      210249.4       201334.75      192460.58      4665.9874      357.91837     -7031.8648      9.0759909      9.076          9.076          747.62364    
       276   0             -659.67601      202920.87      210885.38      203307.12      194570.11      5287.2465     -1143.5462     -6605.229       9.0759909      9.076          9.076          747.62364    
       277   0             -659.67983      203571.41      211798.35      204325.86      194590.03      5534.8717     -412.59108     -7131.9252      9.0759909      9.076          9.076          747.62364    
       278   0             -659.68165      203925.26      211964.66      204755.46      195055.66      6094.0315     -361.1098      -7733.9662      9.0759909      9.076          9.076          747.62364    
       279   0             -659.68295      204259.82      211992.19      205180.18      195607.1       6366.9773     -438.37645     -7796.4257      9.0759909      9.076          9.076          747.62364    
       280   0             -659.68427      204389.34      212168.29      205393.92      195605.81      5851.3707      319.66322     -7927.8942      9.0759909      9.076          9.076          747.62364    
       281   0             -659.68568      204441.43      211577.34      205476.22      196270.73      5483.6317     -501.27055     -8214.3903      9.0759909      9.076          9.076          747.62364    
       282   0             -659.68789      204327.76      211044.46      205381.01      196557.82      5309.5279     -42.426956     -8456.7371      9.0759909      9.076          9.076          747.62364    
       283   0             -659.69044      204942.7       211324.46      206128.17      197375.48      5296.8002      1212.4982     -8216.2625      9.0759909      9.076          9.076          747.62364    
       284   0             -659.69257      205736.75      211468.55      207521.99      198219.71      4815.567       1003.0625     -8916.2107      9.0759909      9.076          9.076          747.62364    
       285   0             -659.69486      206361.17      212064.39      208495.65      198523.48      4573.4114      1148.7766     -9353.3766      9.0759909      9.076          9.076          747.62364    
       286   0             -659.69645      206856.26      211840.78      209093.31      199634.69      4805.7339      986.50758     -9092.658       9.0759909      9.076          9.076          747.62364    
       287   0             -659.69797      207002.61      211556.44      209560.86      199890.53      4546.1967      1996.1811     -9536.7783      9.0759909      9.076          9.076          747.62364    
       288   0             -659.69957      207341.61      211574.84      210107.91      200342.07      4555.1097      1687.9764     -9882.9743      9.0759909      9.076          9.076          747.62364    
       289   0             -659.70097      207851.81      211747.03      210894.06      200914.35      4762.3158      1431.7648     -9611.7062      9.0759909      9.076          9.076          747.62364    
       290   0             -659.70205      208132.23      211789.12      211533.49      201074.09      4490.6239      1837.9846     -10236.202      9.0759909      9.076          9.076          747.62364    
       291   0             -659.70342      208617.42      211987.32      212032         201832.94      4673.3556      1575.6205     -9806.3416      9.0759909      9.076          9.076          747.62364    
       292   0             -659.70513      209261.69      212979.73      212719.74      202085.61      4788.0584      2102.6202     -9614.4925      9.0759909      9.076          9.076          747.62364    
       293   0             -659.70784      210297.33      213918.55      213941.73      203031.71      5112.423       1971.7778     -9915.8677      9.0759909      9.076          9.076          747.62364    
       294   0             -659.71084      211023.31      214076.22      215222.7       203771.02      5119.5529      1937.9594     -11067.98       9.0759909      9.076          9.076          747.62364    
       295   0             -659.71573      211530.77      214717.93      216324.66      203549.73      5096.8991      2484.8745     -12385.735      9.0759909      9.076          9.076          747.62364    
       296   0             -659.72138      211588.61      215539.1       215934.99      203291.74      5905.1351      1647.5495     -11174.337      9.0759909      9.076          9.076          747.62364    
       297   0             -659.72639      212259.68      215977.75      216582.18      204219.13      6410.1359      1022.0022     -10692.67       9.0759909      9.076          9.076          747.62364    
       298   0             -659.73519      212958.93      216311.22      218246.18      204319.39      5782.3714      2299.1938     -12595.251      9.0759909      9.076          9.076          747.62364    
       299   0             -659.74108      213327.97      217582.15      219016.03      203385.73      6270.2723      1228.8371     -13194.014      9.0759909      9.076          9.076          747.62364    
       300   0             -659.74646      213920.47      218337.39      219854.71      203569.32      6894.3548      410.01748     -13221.521      9.0759909      9.076          9.076          747.62364    
       301   0             -659.754        214355.98      217918.43      220346.91      204802.6       6780.1102      1846.1722     -13145.835      9.0759909      9.076          9.076          747.62364    
       302   0             -659.75817      214366.6       218189.34      220365.14      204545.31      6452.8656      3008.6055     -13636.268      9.0759909      9.076          9.076          747.62364    
       303   0             -659.76513      214756.19      219079.93      220500.83      204687.81      6974.4107      1379.762      -13511.909      9.0759909      9.076          9.076          747.62364    
       304   0             -659.76948      215425.25      219545.27      221383.53      205346.95      6950.0553      1438.2771     -13597.789      9.0759909      9.076          9.076          747.62364    
       305   0             -659.77224      215810.82      220168.14      222211.17      205053.13      6381.1652      2273.3915     -14738.112      9.0759909      9.076          9.076          747.62364    
       306   0             -659.77628      216098.54      220631.69      222179.34      205484.58      6644.7703      1123.0087     -14521.215      9.0759909      9.076          9.076          747.62364    
       307   0             -659.77922      216554.52      221059.81      222206.14      206397.61      7244.8003      1025.7933     -13892.738      9.0759909      9.076          9.076          747.62364    
       308   0             -659.78107      216677.32      221250.32      222397.66      206383.97      6896.8553      2264.4589     -14071.926      9.0759909      9.076          9.076          747.62364    
       309   0             -659.78201      216745.08      221302.39      222704.99      206227.86      6396.3544      1984.9814     -14787.144      9.0759909      9.076          9.076          747.62364    
       310   0             -659.78249      216910.66      221506.94      222786.7       206438.34      6412.5865      1383.0885     -14464.246      9.0759909      9.076          9.076          747.62364    
       311   0             -659.78332      217017.91      221842.05      222658.22      206553.46      6498.6157      1588.9992     -13594.526      9.0759909      9.076          9.076          747.62364    
       312   0             -659.78406      216988.9       221616.04      222633.97      206716.71      6456.955       1617.97       -13970.282      9.0759909      9.076          9.076          747.62364    
       313   0             -659.78461      217021.06      221534.14      222624.78      206904.24      6550.3506      1528.2432     -14346.048      9.0759909      9.076          9.076          747.62364    
       314   0             -659.78504      217036.34      221772.51      222590.9       206745.63      6562.6808      1853.1018     -14280.907      9.0759909      9.076          9.076          747.62364    
       315   0             -659.78534      217137.1       221821.5       222708.41      206881.39      6547.5133      1509.6381     -14077.232      9.0759909      9.076          9.076          747.62364    
       316   0             -659.78556      217312.51      221922.4       222822.99      207192.15      6544.5424      1180.5697     -13927.842      9.0759909      9.076          9.076          747.62364    
       317   0             -659.7858       217357.08      222139.56      222779.89      207151.77      6368.7736      1675.3877     -14048.314      9.0759909      9.076          9.076          747.62364    
       318   0             -659.78606      217304.24      222031.72      222702.42      207178.57      6250.8614      1608.9588     -14216.491      9.0759909      9.076          9.076          747.62364    
[...]
       462   0             -659.8974       214087.64      215065.89      214180.63      213016.41      469.50769     -42.032887     -11688.871      9.076          9.076          9.076          747.62439    
       463   0             -659.8974       214087.64      215065.88      214180.62      213016.41      469.5051      -42.022852     -11688.857      9.076          9.076          9.076          747.62439    
       464   0             -659.8974       214087.63      215065.88      214180.62      213016.41      469.50828     -42.043854     -11688.839      9.076          9.076          9.076          747.62439    
       465   0             -659.8974       214087.63      215065.88      214180.62      213016.4       469.50379     -42.049372     -11688.849      9.076          9.076          9.076          747.62439    
       466   0             -659.8974       214087.63      215065.88      214180.62      213016.39      469.50534     -42.037839     -11688.851      9.076          9.076          9.076          747.62439    
       467   0             -659.8974       214087.63      215065.88      214180.62      213016.4       469.50889     -42.03987      -11688.843      9.076          9.076          9.076          747.62439    
       468   0             -659.8974       214087.63      215065.88      214180.62      213016.39      469.50622     -42.040012     -11688.847      9.076          9.076          9.076          747.62439    
       469   0             -659.8974       214087.63      215065.88      214180.61      213016.39      469.50682     -42.037722     -11688.835      9.076          9.076          9.076          747.62439    
       470   0             -659.8974       214087.63      215065.87      214180.61      213016.39      469.51052     -42.040714     -11688.829      9.076          9.076          9.076          747.62439    
       471   0             -659.8974       214087.63      215065.88      214180.61      213016.39      469.51004     -42.041971     -11688.839      9.076          9.076          9.076          747.62439    
       472   0             -659.8974       214087.63      215065.88      214180.62      213016.39      469.50979     -42.039782     -11688.84       9.076          9.076          9.076          747.62439    
       473   0             -659.8974       214087.63      215065.88      214180.62      213016.39      469.51217     -42.042433     -11688.835      9.076          9.076          9.076          747.62439    
       474   0             -659.8974       214087.63      215065.88      214180.62      213016.39      469.51235     -42.0456       -11688.836      9.076          9.076          9.076          747.62439    
       475   0             -659.8974       214087.63      215065.88      214180.62      213016.39      469.51032     -42.041168     -11688.838      9.076          9.076          9.076          747.62439    
       476   0             -659.8974       214087.63      215065.87      214180.61      213016.39      469.51155     -42.041183     -11688.835      9.076          9.076          9.076          747.62439    
       477   0             -659.8974       214087.63      215065.87      214180.62      213016.39      469.51296     -42.04373      -11688.837      9.076          9.076          9.076          747.62439    
       478   0             -659.8974       214087.63      215065.88      214180.62      213016.39      469.51398     -42.040699     -11688.839      9.076          9.076          9.076          747.62439    
       479   0             -659.8974       214087.63      215065.88      214180.62      213016.39      469.51543     -42.040735     -11688.836      9.076          9.076          9.076          747.62439    
       480   0             -659.8974       214087.63      215065.87      214180.62      213016.39      469.5138      -42.044161     -11688.837      9.076          9.076          9.076          747.62439    
       481   0             -659.8974       214087.62      215065.87      214180.62      213016.38      469.51233     -42.044072     -11688.837      9.076          9.076          9.076          747.62439    
       482   0             -659.8974       214087.63      215065.87      214180.61      213016.39      469.51311     -42.043703     -11688.834      9.076          9.076          9.076          747.62439    
       483   0             -659.8974       214087.63      215065.87      214180.62      213016.39      469.51484     -42.041997     -11688.835      9.076          9.076          9.076          747.62439    
       484   0             -659.8974       214087.63      215065.87      214180.62      213016.39      469.51456     -42.041174     -11688.837      9.076          9.076          9.076          747.62439    
       485   0             -659.8974       214087.63      215065.87      214180.62      213016.39      469.5147      -42.041627     -11688.836      9.076          9.076          9.076          747.62439    
       486   0             -659.8974       214087.62      215065.87      214180.61      213016.39      469.51406     -42.043278     -11688.836      9.076          9.076          9.076          747.62439    
       487   0             -659.8974       214087.62      215065.87      214180.61      213016.38      469.51357     -42.04271      -11688.836      9.076          9.076          9.076          747.62439    
       488   0             -659.8974       214087.62      215065.87      214180.61      213016.38      469.51382     -42.041799     -11688.836      9.076          9.076          9.076          747.62439    
       489   0             -659.8974       214087.62      215065.87      214180.61      213016.38      469.51425     -42.042199     -11688.836      9.076          9.076          9.076          747.62439    
       490   0             -659.8974       214087.62      215065.87      214180.61      213016.38      469.5141      -42.041739     -11688.837      9.076          9.076          9.076          747.62439    
       491   0             -659.8974       214087.62      215065.87      214180.61      213016.38      469.51427     -42.041005     -11688.837      9.076          9.076          9.076          747.62439    
       492   0             -659.8974       214087.62      215065.87      214180.61      213016.38      469.51455     -42.041832     -11688.836      9.076          9.076          9.076          747.62439    
       493   0             -659.8974       214087.62      215065.87      214180.61      213016.38      469.51439     -42.041933     -11688.836      9.076          9.076          9.076          747.62439    
       494   0             -659.8974       214087.62      215065.87      214180.61      213016.38      469.51434     -42.04163      -11688.836      9.076          9.076          9.076          747.62439    
       495   0             -659.8974       214087.62      215065.87      214180.61      213016.38      469.51446     -42.041821     -11688.836      9.076          9.076          9.076          747.62439    
       496   0             -659.8974       214087.62      215065.87      214180.61      213016.38      469.51435     -42.041798     -11688.836      9.076          9.076          9.076          747.62439    
       497   0             -659.8974       214087.62      215065.87      214180.61      213016.38      469.51437     -42.041526     -11688.836      9.076          9.076          9.076          747.62439    
       498   0             -659.8974       214087.62      215065.87      214180.61      213016.38      469.51443     -42.041608     -11688.836      9.076          9.076          9.076          747.62439    
       499   0             -659.8974       214087.62      215065.87      214180.61      213016.38      469.5143      -42.041572     -11688.836      9.076          9.076          9.076          747.62439    
       500   0             -659.8974       214087.62      215065.87      214180.61      213016.38      469.51431     -42.041315     -11688.836      9.076          9.076          9.076          747.62439    
       501   0             -659.8974       214087.62      215065.87      214180.61      213016.38      469.51448     -42.041386     -11688.836      9.076          9.076          9.076          747.62439    
Loop time of 0.978221 on 1 procs for 500 steps with 64 atoms

99.8% CPU use with 1 MPI tasks x no OpenMP threads

Minimization stats:
  Stopping criterion = max iterations
  Energy initial, next-to-last, final = 
     -653.439999864312  -659.897396410767  -659.897396410768
  Force two-norm initial, final = 0.00061932427 1.52182e-07
  Force max component initial, final = 0.00013502438 7.2208884e-08
  Final line search alpha, max atom move = 1 7.2208884e-08
  Iterations, force evaluations = 500 737

MPI task timing breakdown:
Section |  min time  |  avg time  |  max time  |%varavg| %total
---------------------------------------------------------------
Pair    | 0.96875    | 0.96875    | 0.96875    |   0.0 | 99.03
Neigh   | 0.00091903 | 0.00091903 | 0.00091903 |   0.0 |  0.09
Comm    | 0.0030936  | 0.0030936  | 0.0030936  |   0.0 |  0.32
Output  | 0.0033678  | 0.0033678  | 0.0033678  |   0.0 |  0.34
Modify  | 0          | 0          | 0          |   0.0 |  0.00
Other   |            | 0.002088   |            |       |  0.21

Nlocal:             64 ave          64 max          64 min
Histogram: 1 0 0 0 0 0 0 0 0 0
Nghost:           1267 ave        1267 max        1267 min
Histogram: 1 0 0 0 0 0 0 0 0 0
Neighs:           6830 ave        6830 max        6830 min
Histogram: 1 0 0 0 0 0 0 0 0 0
FullNghs:        13660 ave       13660 max       13660 min
Histogram: 1 0 0 0 0 0 0 0 0 0

Total # of neighbors = 13660
Ave neighs/atom = 213.4375
Neighbor list builds = 2
Dangerous builds = 0

# Obtain new stress tensor

variable tmp equal pe
variable e1 equal ${tmp}
variable e1 equal -659.897396410768
variable tmp equal press
variable p1 equal ${tmp}
variable p1 equal 214087.623451954
variable tmp equal pxx
variable pxx1 equal ${tmp}
variable pxx1 equal 215065.872681257
variable tmp equal pyy
variable pyy1 equal ${tmp}
variable pyy1 equal 214180.613485558
variable tmp equal pzz
variable pzz1 equal ${tmp}
variable pzz1 equal 213016.384189047
variable tmp equal pxy
variable pxy1 equal ${tmp}
variable pxy1 equal 469.514482821005
variable tmp equal pxz
variable pxz1 equal ${tmp}
variable pxz1 equal -42.0413858805356
variable tmp equal pyz
variable pyz1 equal ${tmp}
variable pyz1 equal -11688.8356538884

# Compute elastic constant from pressure tensor

variable C1pos equal ${d1}
variable C1pos equal -21506587.2681306
variable C2pos equal ${d2}
variable C2pos equal -21418061.3485607
variable C3pos equal ${d3}
variable C3pos equal -21301638.4189096
variable C4pos equal ${d4}
variable C4pos equal 1168883.56538884
variable C5pos equal ${d5}
variable C5pos equal 4204.13858805356
variable C6pos equal ${d6}
variable C6pos equal -46951.4482821005

# Combine positive and negative

variable C1${dir} equal 0.5*(${C1neg}+${C1pos})
variable C16 equal 0.5*(${C1neg}+${C1pos})
variable C16 equal 0.5*(21506573.0580122+${C1pos})
variable C16 equal 0.5*(21506573.0580122+-21506587.2681306)
variable C2${dir} equal 0.5*(${C2neg}+${C2pos})
variable C26 equal 0.5*(${C2neg}+${C2pos})
variable C26 equal 0.5*(21418036.0575935+${C2pos})
variable C26 equal 0.5*(21418036.0575935+-21418061.3485607)
variable C3${dir} equal 0.5*(${C3neg}+${C3pos})
variable C36 equal 0.5*(${C3neg}+${C3pos})
variable C36 equal 0.5*(21301622.669022+${C3pos})
variable C36 equal 0.5*(21301622.669022+-21301638.4189096)
variable C4${dir} equal 0.5*(${C4neg}+${C4pos})
variable C46 equal 0.5*(${C4neg}+${C4pos})
variable C46 equal 0.5*(-1168886.83746896+${C4pos})
variable C46 equal 0.5*(-1168886.83746896+1168883.56538884)
variable C5${dir} equal 0.5*(${C5neg}+${C5pos})
variable C56 equal 0.5*(${C5neg}+${C5pos})
variable C56 equal 0.5*(-4179.96828758401+${C5pos})
variable C56 equal 0.5*(-4179.96828758401+4204.13858805356)
variable C6${dir} equal 0.5*(${C6neg}+${C6pos})
variable C66 equal 0.5*(${C6neg}+${C6pos})
variable C66 equal 0.5*(47139.0783437657+${C6pos})
variable C66 equal 0.5*(47139.0783437657+-46951.4482821005)

# Delete dir to make sure it is not reused

variable dir delete

# Output final values

variable C11all equal ${C11}
variable C11all equal 356.429183650762
variable C22all equal ${C22}
variable C22all equal 358.909132599831
variable C33all equal ${C33}
variable C33all equal 334.660697350278

variable C12all equal 0.5*(${C12}+${C21})
variable C12all equal 0.5*(197.403875350952+${C21})
variable C12all equal 0.5*(197.403875350952+197.310685550794)
variable C13all equal 0.5*(${C13}+${C31})
variable C13all equal 0.5*(179.534962449223+${C31})
variable C13all equal 0.5*(179.534962449223+179.323004150763)
variable C23all equal 0.5*(${C23}+${C32})
variable C23all equal 0.5*(176.593111699447+${C32})
variable C23all equal 0.5*(176.593111699447+176.498354649171)

variable C44all equal ${C44}
variable C44all equal 94.171151735005
variable C55all equal ${C55}
variable C55all equal 35.0072339866701
variable C66all equal ${C66}
variable C66all equal 93.8150308326003

variable C14all equal 0.5*(${C14}+${C41})
variable C14all equal 0.5*(-7.23868330009282+${C41})
variable C14all equal 0.5*(-7.23868330009282+-8.40684316493571)
variable C15all equal 0.5*(${C15}+${C51})
variable C15all equal 0.5*(-1.9433635994792+${C51})
variable C15all equal 0.5*(-1.9433635994792+-1.92333794754495)
variable C16all equal 0.5*(${C16}+${C61})
variable C16all equal 0.5*(-7.10505920089781+${C61})
variable C16all equal 0.5*(-7.10505920089781+-7.01564635830073)

variable C24all equal 0.5*(${C24}+${C42})
variable C24all equal 0.5*(-7.4088615514338+${C42})
variable C24all equal 0.5*(-7.4088615514338+-9.75023938994855)
variable C25all equal 0.5*(${C25}+${C52})
variable C25all equal 0.5*(-1.66994559951127+${C52})
variable C25all equal 0.5*(-1.66994559951127+-1.6858564142799)
variable C26all equal 0.5*(${C26}+${C62})
variable C26all equal 0.5*(-12.6454835999757+${C62})
variable C26all equal 0.5*(-12.6454835999757+-12.6313244445519)

variable C34all equal 0.5*(${C34}+${C43})
variable C34all equal 0.5*(-20.0021990500391+${C43})
variable C34all equal 0.5*(-20.0021990500391+-19.9938083000015)
variable C35all equal 0.5*(${C35}+${C53})
variable C35all equal 0.5*(11.5164801999927+${C53})
variable C35all equal 0.5*(11.5164801999927+11.5119457964502)
variable C36all equal 0.5*(${C36}+${C63})
variable C36all equal 0.5*(-7.87494379840791+${C63})
variable C36all equal 0.5*(-7.87494379840791+-7.84061519139868)

variable C45all equal 0.5*(${C45}+${C54})
variable C45all equal 0.5*(7.24912405002397+${C54})
variable C45all equal 0.5*(7.24912405002397+7.22904072045503)
variable C46all equal 0.5*(${C46}+${C64})
variable C46all equal 0.5*(-1.63604006008245+${C64})
variable C46all equal 0.5*(-1.63604006008245+-1.6010645448514)
variable C56all equal 0.5*(${C56}+${C65})
variable C56all equal 0.5*(12.085150234775+${C65})
variable C56all equal 0.5*(12.085150234775+12.1291007129003)

# Average moduli for cubic crystals

variable C11cubic equal (${C11all}+${C22all}+${C33all})/3.0
variable C11cubic equal (356.429183650762+${C22all}+${C33all})/3.0
variable C11cubic equal (356.429183650762+358.909132599831+${C33all})/3.0
variable C11cubic equal (356.429183650762+358.909132599831+334.660697350278)/3.0
variable C12cubic equal (${C12all}+${C13all}+${C23all})/3.0
variable C12cubic equal (197.357280450873+${C13all}+${C23all})/3.0
variable C12cubic equal (197.357280450873+179.428983299993+${C23all})/3.0
variable C12cubic equal (197.357280450873+179.428983299993+176.545733174309)/3.0
variable C44cubic equal (${C44all}+${C55all}+${C66all})/3.0
variable C44cubic equal (94.171151735005+${C55all}+${C66all})/3.0
variable C44cubic equal (94.171151735005+35.0072339866701+${C66all})/3.0
variable C44cubic equal (94.171151735005+35.0072339866701+93.8150308326003)/3.0

variable bulkmodulus equal (${C11cubic}+2*${C12cubic})/3.0
variable bulkmodulus equal (349.99967120029+2*${C12cubic})/3.0
variable bulkmodulus equal (349.99967120029+2*184.443998975058)/3.0
variable shearmodulus1 equal ${C44cubic}
variable shearmodulus1 equal 74.3311388514251
variable shearmodulus2 equal (${C11cubic}-${C12cubic})/2.0
variable shearmodulus2 equal (349.99967120029-${C12cubic})/2.0
variable shearmodulus2 equal (349.99967120029-184.443998975058)/2.0
variable poissonratio equal 1.0/(1.0+${C11cubic}/${C12cubic})
variable poissonratio equal 1.0/(1.0+349.99967120029/${C12cubic})
variable poissonratio equal 1.0/(1.0+349.99967120029/184.443998975058)

# For Stillinger-Weber silicon, the analytical results
# are known to be (E. R. Cowley, 1988):
#               C11 = 151.4 GPa
#               C12 = 76.4 GPa
#               C44 = 56.4 GPa

print "========================================="
=========================================
print "Components of the Elastic Constant Tensor"
Components of the Elastic Constant Tensor
print "========================================="
=========================================

print "Elastic Constant C11all = ${C11all} ${cunits}"
Elastic Constant C11all = 356.429183650762 GPa
print "Elastic Constant C22all = ${C22all} ${cunits}"
Elastic Constant C22all = 358.909132599831 GPa
print "Elastic Constant C33all = ${C33all} ${cunits}"
Elastic Constant C33all = 334.660697350278 GPa

print "Elastic Constant C12all = ${C12all} ${cunits}"
Elastic Constant C12all = 197.357280450873 GPa
print "Elastic Constant C13all = ${C13all} ${cunits}"
Elastic Constant C13all = 179.428983299993 GPa
print "Elastic Constant C23all = ${C23all} ${cunits}"
Elastic Constant C23all = 176.545733174309 GPa

print "Elastic Constant C44all = ${C44all} ${cunits}"
Elastic Constant C44all = 94.171151735005 GPa
print "Elastic Constant C55all = ${C55all} ${cunits}"
Elastic Constant C55all = 35.0072339866701 GPa
print "Elastic Constant C66all = ${C66all} ${cunits}"
Elastic Constant C66all = 93.8150308326003 GPa

print "Elastic Constant C14all = ${C14all} ${cunits}"
Elastic Constant C14all = -7.82276323251426 GPa
print "Elastic Constant C15all = ${C15all} ${cunits}"
Elastic Constant C15all = -1.93335077351207 GPa
print "Elastic Constant C16all = ${C16all} ${cunits}"
Elastic Constant C16all = -7.06035277959927 GPa

print "Elastic Constant C24all = ${C24all} ${cunits}"
Elastic Constant C24all = -8.57955047069117 GPa
print "Elastic Constant C25all = ${C25all} ${cunits}"
Elastic Constant C25all = -1.67790100689558 GPa
print "Elastic Constant C26all = ${C26all} ${cunits}"
Elastic Constant C26all = -12.6384040222638 GPa

print "Elastic Constant C34all = ${C34all} ${cunits}"
Elastic Constant C34all = -19.9980036750203 GPa
print "Elastic Constant C35all = ${C35all} ${cunits}"
Elastic Constant C35all = 11.5142129982214 GPa
print "Elastic Constant C36all = ${C36all} ${cunits}"
Elastic Constant C36all = -7.85777949490329 GPa

print "Elastic Constant C45all = ${C45all} ${cunits}"
Elastic Constant C45all = 7.2390823852395 GPa
print "Elastic Constant C46all = ${C46all} ${cunits}"
Elastic Constant C46all = -1.61855230246693 GPa
print "Elastic Constant C56all = ${C56all} ${cunits}"
Elastic Constant C56all = 12.1071254738376 GPa

print "========================================="
=========================================
print "Average properties for a cubic crystal"
Average properties for a cubic crystal
print "========================================="
=========================================

print "Bulk Modulus = ${bulkmodulus} ${cunits}"
Bulk Modulus = 239.629223050135 GPa
print "Shear Modulus 1 = ${shearmodulus1} ${cunits}"
Shear Modulus 1 = 74.3311388514251 GPa
print "Shear Modulus 2 = ${shearmodulus2} ${cunits}"
Shear Modulus 2 = 82.777836112616 GPa
print "Poisson Ratio = ${poissonratio}"
Poisson Ratio = 0.345114011574958
variable length equal "lx"
print "Lattice constant (Angstroms) = ${length};"
Lattice constant (Angstroms) = 9.07599999684796;
Total wall time: 0:00:12
