LAMMPS (23 Jun 2022)
Lattice spacing in x,y,z = 4.538 4.538 4.538
Created triclinic box = (-4.538 -4.538 -4.538) to (4.538 4.538 4.538) with tilt (0 0 0)
  1 by 1 by 1 MPI processor grid
Lattice spacing in x,y,z = 4.538 4.538 4.538
Created 32 atoms
  using lattice units in triclinic box = (-4.538 -4.538 -4.538) to (4.538 4.538 4.538) with tilt (0 0 0)
  create_atoms CPU = 0.000 seconds
Lattice spacing in x,y,z = 4.538 4.538 4.538
Created 32 atoms
  using lattice units in triclinic box = (-4.538 -4.538 -4.538) to (4.538 4.538 4.538) with tilt (0 0 0)
  create_atoms CPU = 0.000 seconds
Reading MEAM library file library_HfN.meam with DATE: 2015-02-12
Neighbor list info ...
  update every 1 steps, delay 0 steps, check yes
  max neighbors/atom: 2000, page size: 100000
  master list distance cutoff = 8.38
  ghost atom cutoff = 8.38
  2 neighbor lists, perpetual/occasional/extra = 2 0 0
  (1) pair meam, perpetual
      attributes: full, newton on
      pair build: full/nsq
      stencil: none
      bin: none
  (2) pair meam, perpetual, half/full from (1)
      attributes: half, newton on
      pair build: halffull/newton
      stencil: none
      bin: none
Setting up cg style minimization ...
  Unit style    : metal
  Current step  : 0
WARNING: Energy due to 3 extra global DOFs will be included in minimizer energies
Per MPI rank memory allocation (min/avg/max) = 10.24 | 10.24 | 10.24 Mbytes
   Step          Temp          PotEng         Press           Pxx            Pyy            Pzz            Pxy            Pxz            Pyz             Lx             Ly             Lz           Volume    
         0   0             -653.44        -0.004375024   -0.004375024   -0.004375024   -0.004375024    5.6725355e-20  8.5088032e-20  0              9.076          9.076          9.076          747.62439    
         1   0             -653.44        -4.8534509e-08 -4.8534509e-08 -4.8534509e-08 -4.8534509e-08  0             -2.1639006e-25 -8.6556022e-25  9.076          9.076          9.076          747.62439    
Loop time of 0.00268816 on 1 procs for 1 steps with 64 atoms

99.9% CPU use with 1 MPI tasks x no OpenMP threads

Minimization stats:
  Stopping criterion = force tolerance
  Energy initial, next-to-last, final = 
     -653.439999877045  -653.439999877045  -653.439999877036
  Force two-norm initial, final = 3.5360156e-06 3.9226934e-11
  Force max component initial, final = 2.0415196e-06 2.2647681e-11
  Final line search alpha, max atom move = 1 2.2647681e-11
  Iterations, force evaluations = 1 2

MPI task timing breakdown:
Section |  min time  |  avg time  |  max time  |%varavg| %total
---------------------------------------------------------------
Pair    | 0.0026325  | 0.0026325  | 0.0026325  |   0.0 | 97.93
Neigh   | 0          | 0          | 0          |   0.0 |  0.00
Comm    | 1.2921e-05 | 1.2921e-05 | 1.2921e-05 |   0.0 |  0.48
Output  | 0          | 0          | 0          |   0.0 |  0.00
Modify  | 0          | 0          | 0          |   0.0 |  0.00
Other   |            | 4.273e-05  |            |       |  1.59

Nlocal:             64 ave          64 max          64 min
Histogram: 1 0 0 0 0 0 0 0 0 0
Nghost:           1267 ave        1267 max        1267 min
Histogram: 1 0 0 0 0 0 0 0 0 0
Neighs:           6464 ave        6464 max        6464 min
Histogram: 1 0 0 0 0 0 0 0 0 0
FullNghs:        12928 ave       12928 max       12928 min
Histogram: 1 0 0 0 0 0 0 0 0 0

Total # of neighbors = 12928
Ave neighs/atom = 202
Neighbor list builds = 0
Dangerous builds = 0
Displacing atoms ...
System init for write_restart ...
Reading restart file ...
  restart file = 23 Jun 2022, LAMMPS = 23 Jun 2022
  restoring atom style atomic from restart
  triclinic box = (-4.538 -4.538 -4.538) to (4.538 4.538 4.538) with tilt (0 0 0)
  1 by 1 by 1 MPI processor grid
  pair style meam stores no restart info
  64 atoms
  read_restart CPU = 0.000 seconds
Reading MEAM library file library_HfN.meam with DATE: 2015-02-12
Changing box ...
  triclinic box = (-4.538 -4.538 -4.538) to (4.5379909 4.538 4.538) with tilt (0 0 0)
  triclinic box = (-4.538 -4.538 -4.538) to (4.5379909 4.538 4.538) with tilt (0 0 0)
  triclinic box = (-4.538 -4.538 -4.538) to (4.5379909 4.538 4.538) with tilt (0 0 0)
Neighbor list info ...
  update every 1 steps, delay 0 steps, check yes
  max neighbors/atom: 2000, page size: 100000
  master list distance cutoff = 8.38
  ghost atom cutoff = 8.38
  2 neighbor lists, perpetual/occasional/extra = 2 0 0
  (1) pair meam, perpetual
      attributes: full, newton on
      pair build: full/nsq
      stencil: none
      bin: none
  (2) pair meam, perpetual, half/full from (1)
      attributes: half, newton on
      pair build: halffull/newton
      stencil: none
      bin: none
Setting up cg style minimization ...
  Unit style    : metal
  Current step  : 1
Per MPI rank memory allocation (min/avg/max) = 10.2 | 10.2 | 10.2 Mbytes
   Step          Temp          PotEng         Press           Pxx            Pyy            Pzz            Pxy            Pxz            Pyz             Lx             Ly             Lz           Volume    
         1   0             -653.44         4.1993611      4.9899909      3.8040439      3.8040486      8.788331e-06   1.0254485e-05  6.6748372e-06  9.0759909      9.076          9.076          747.62364    
         2   0             -653.44         4.1992582      4.9898893      3.8039382      3.8039471      1.1748509e-06 -1.7838803e-06  1.4055406e-07  9.0759909      9.076          9.076          747.62364    
         3   0             -653.44         4.1991812      4.9898182      3.8038628      3.8038626      3.4578111e-06  1.0620174e-06 -8.3882106e-07  9.0759909      9.076          9.076          747.62364    
         4   0             -653.44         4.1991069      4.9897392      3.803791       3.8037905      1.629186e-06  -2.7364822e-08 -3.2047857e-07  9.0759909      9.076          9.076          747.62364    
         5   0             -653.44         4.1990753      4.9897086      3.8037595      3.8037579      1.1042457e-06 -7.8908923e-07 -3.812984e-07   9.0759909      9.076          9.076          747.62364    
         6   0             -653.44         4.1990514      4.9896854      3.8037353      3.8037334      8.0251579e-07 -1.109147e-06   1.1804108e-07  9.0759909      9.076          9.076          747.62364    
         7   0             -653.44         4.1990093      4.9896446      3.8036926      3.8036906      8.3352028e-07 -1.9026083e-06 -2.1775329e-07  9.0759909      9.076          9.076          747.62364    
         8   0             -653.44         4.1988861      4.9895262      3.8035676      3.8035645      2.7193626e-06 -3.8439593e-06 -1.5305397e-06  9.0759909      9.076          9.076          747.62364    
         9   0             -653.44         4.198385       4.9890492      3.8030548      3.8030509      8.631064e-06  -1.231935e-05  -2.8309004e-06  9.0759909      9.076          9.076          747.62364    
        10   0             -653.44         3.7990191      4.6143538      3.3909596      3.391744       0.0048563963  -0.0057298348  -0.00063187244  9.0759909      9.076          9.076          747.62364    
        11   0             -653.44013     -62.869762     -57.883057     -65.438142     -65.288086      0.81837304    -0.9397161     -0.11779998     9.0759909      9.076          9.076          747.62364    
        12   0             -653.44049     -243.74222     -227.46085     -252.17157     -251.59424      3.0374407     -3.458312      -0.45820499     9.0759909      9.076          9.076          747.62364    
        13   0             -653.44106     -538.73698     -504.14487     -556.67492     -555.39117      6.6817116     -7.5527109     -1.0528066      9.0759909      9.076          9.076          747.62364    
        14   0             -653.44183     -947.74042     -887.98309     -978.7529      -976.48526      11.774667     -13.22329      -1.9367152      9.0759909      9.076          9.076          747.62364    
        15   0             -653.4428      -1471.0675     -1379.4719     -1518.6347     -1515.096       18.348475     -20.478357     -3.1654213      9.0759909      9.076          9.076          747.62364    
        16   0             -653.44407     -2111.643      -1981.547      -2179.1787     -2174.2032      26.461096     -29.316613     -4.8958442      9.0759909      9.076          9.076          747.62364    
        17   0             -653.4465      -2895.3171     -2718.0787     -2987.0663     -2980.8062      36.341957     -39.665177     -7.828246       9.0759909      9.076          9.076          747.62364    
        18   0             -653.44929     -3073.6499     -2880.4344     -3173.7725     -3166.7429      37.024139     -40.762892     -5.7082091      9.0759909      9.076          9.076          747.62364    
        19   0             -653.45689     -3965.7294     -3704.5552     -4119.551      -4073.082       31.352261     -56.488368     -1.4676723      9.0759909      9.076          9.076          747.62364    
        20   0             -653.4637      -4970.5033     -4623.3572     -5166.9213     -5121.2315      34.805625     -67.429143     -8.366598       9.0759909      9.076          9.076          747.62364    
        21   0             -653.46925     -6120.8072     -5691.1785     -6371.4166     -6299.8264      38.398365     -80.429767     -10.896981      9.0759909      9.076          9.076          747.62364    
        22   0             -653.47652     -7514.6596     -6975.7591     -7831.101      -7737.1186      45.36415      -93.700122     -12.444976      9.0759909      9.076          9.076          747.62364    
        23   0             -653.47915     -7974.0308     -7390.4991     -8310.6847     -8220.9085      46.424761     -96.819126     -11.017743      9.0759909      9.076          9.076          747.62364    
        24   0             -653.48593     -10080.029     -9331.4812     -10530.242     -10378.365      53.390758     -112.94248     -10.007329      9.0759909      9.076          9.076          747.62364    
        25   0             -653.49687     -12523.25      -11585.946     -13086.316     -12897.489      64.264255     -84.511651     -15.397735      9.0759909      9.076          9.076          747.62364    
        26   0             -653.50242     -13378.146     -12373.968     -13970.861     -13789.609      67.027546     -63.866519     -26.829777      9.0759909      9.076          9.076          747.62364    
        27   0             -653.50631     -14736.295     -13628.179     -15394.998     -15185.709      64.952244     -2.6142586     -32.304567      9.0759909      9.076          9.076          747.62364    
        28   0             -653.5174      -17552.568     -16219.95      -18347.271     -18090.482      12.75829       299.2471      -33.016258      9.0759909      9.076          9.076          747.62364    
        29   0             -653.52134     -18106.178     -16718.552     -18926.748     -18673.233     -9.0663844      401.44203     -27.348421      9.0759909      9.076          9.076          747.62364    
        30   0             -653.52745     -20239.698     -18680.332     -21171.103     -20867.659     -131.00634      913.31776     -16.558699      9.0759909      9.076          9.076          747.62364    
        31   0             -653.53616     -22387.743     -20662.406     -23410.878     -23089.947     -325.535        1688.6095     -23.018104      9.0759909      9.076          9.076          747.62364    
        32   0             -653.54653     -23595.272     -21772.489     -24652.157     -24361.171     -521.32174      2518.5315     -51.066671      9.0759909      9.076          9.076          747.62364    
        33   0             -653.55749     -24510.864     -22600.444     -25603.24      -25328.909     -787.20183      3844.0423     -74.410988      9.0759909      9.076          9.076          747.62364    
        34   0             -653.57347     -24981.67      -22982.402     -26103.273     -25859.336     -1067.068       5496.0677     -96.333515      9.0759909      9.076          9.076          747.62364    
        35   0             -653.59818     -25006.962     -22907.956     -26166.777     -25946.153     -1354.7853      7385.2605     -121.95687      9.0759909      9.076          9.076          747.62364    
        36   0             -653.6325      -24529.62      -22313.573     -25762.262     -25513.025     -1632.8427      9236.8059     -147.02004      9.0759909      9.076          9.076          747.62364    
        37   0             -653.67569     -23501.952     -21140.249     -24882.904     -24482.702     -1886.4604      10677.443     -163.75696      9.0759909      9.076          9.076          747.62364    
        38   0             -653.72476     -21873.816     -19318.437     -23538.65      -22764.36      -2104.7127      11284.442     -162.83464      9.0759909      9.076          9.076          747.62364    
        39   0             -653.77396     -19577.362     -16751.539     -21742.272     -20238.275     -2280.5158      10646.167     -134.18138      9.0759909      9.076          9.076          747.62364    
        40   0             -653.81275     -16790.03      -13623.122     -19676.557     -17070.411     -2408.4408      8742.0834     -74.322079      9.0759909      9.076          9.076          747.62364    
        41   0             -653.83675     -14851.223     -11478.158     -18207.174     -14868.338     -2567.9543      7407.5297     -27.877605      9.0759909      9.076          9.076          747.62364    
        42   0             -653.85843     -14140.478     -10772.764     -17491.813     -14156.858     -2911.3771      7586.1641     -18.938754      9.0759909      9.076          9.076          747.62364    
        43   0             -653.87775     -13036.162     -9616.5198     -16521.242     -12970.723     -3303.5973      7041.5799      21.649445      9.0759909      9.076          9.076          747.62364    
        44   0             -653.89742     -12776.821     -9428.4285     -16062.91      -12839.124     -3919.3165      7372.5482      39.225283      9.0759909      9.076          9.076          747.62364    
        45   0             -653.91339     -11488.931     -8072.1216     -14887.262     -11507.409     -4087.5253      6229.3296      126.18543      9.0759909      9.076          9.076          747.62364    
        46   0             -653.93029     -11803.59      -8504.7299     -14774.26      -12131.78      -4585.0138      7042.7737      119.21314      9.0759909      9.076          9.076          747.62364    
        47   0             -653.94454     -10530.656     -7186.4911     -13437.877     -10967.601     -4214.1512      6064.6255      215.70857      9.0759909      9.076          9.076          747.62364    
        48   0             -653.96244     -11526.85      -8302.6417     -13859.479     -12418.429     -4912.6172      7783.3203      143.0119       9.0759909      9.076          9.076          747.62364    
        49   0             -653.97993     -9966.4366     -6662.2824     -12157.756     -11079.272     -4016.473       7208.8091      232.41281      9.0759909      9.076          9.076          747.62364    
        50   0             -654.00676     -10539.458     -7215.6786     -12498.074     -11904.622     -4856.3952      9351.7044      157.50191      9.0759909      9.076          9.076          747.62364    
        51   0             -654.03813     -10760.628     -7356.1744     -12710.121     -12215.587     -5787.0222      11614.879      102.93795      9.0759909      9.076          9.076          747.62364    
        52   0             -654.07839     -9925.2537     -6373.9041     -11975.604     -11426.253     -6258.1647      13358.122      91.61188       9.0759909      9.076          9.076          747.62364    
        53   0             -654.12672     -8622.6037     -4881.2261     -10867.719     -10118.866     -6772.6181      14789.866      83.546421      9.0759909      9.076          9.076          747.62364    
        54   0             -654.18164     -6950.2751     -2967.0992     -9522.3782     -8361.3479     -7502.7777      15715.677      67.025588      9.0759909      9.076          9.076          747.62364    
        55   0             -654.24382     -4524.2147     -202.64493     -7632.7888     -5737.2104     -8411.0291      15772.071      47.274599      9.0759909      9.076          9.076          747.62364    
        56   0             -654.3005      -2000.3951      2662.1813     -5623.6477     -3039.7188     -9232.807       15428.26       31.472367      9.0759909      9.076          9.076          747.62364    
        57   0             -654.35221      207.02338      5143.6396     -3733.2155     -789.3539      -9757.472       15296.627      32.739531      9.0759909      9.076          9.076          747.62364    
        58   0             -654.40369      2514.126       7696.5844     -1631.064       1476.8576     -9845.8259      15044.643      74.456792      9.0759909      9.076          9.076          747.62364    
        59   0             -654.45359      5311.13        10746.423      982.13866      4204.8286     -9290.4301      14176.554      188.19489      9.0759909      9.076          9.076          747.62364    
        60   0             -654.49203      8448.7033      14121.124      3918.5486      7306.4374     -8054.9066      12518.772      376.09587      9.0759909      9.076          9.076          747.62364    
        61   0             -654.51778      10674.219      16454.212      5983.5091      9584.9349     -7023.6612      11171.554      502.8705       9.0759909      9.076          9.076          747.62364    
        62   0             -654.54446      11045.65       16734.763      6302.6805      10099.506     -7105.8382      11282.789      441.63059      9.0759909      9.076          9.076          747.62364    
        63   0             -654.56517      13052.257      18716.123      8277.2089      12163.438     -5682.8174      9679.5369      582.47316      9.0759909      9.076          9.076          747.62364    
        64   0             -654.57991      11504.58       17017.616      6819.8813      10676.243     -6670.6027      10977.747      404.95365      9.0759909      9.076          9.076          747.62364    
        65   0             -654.59936      12887.629      18364.992      8241.9094      12055.987     -5409.9798      9556.4337      482.7516       9.0759909      9.076          9.076          747.62364    
        66   0             -654.61567      10601.591      15997.444      6068.2986      9739.0295     -6690.6792      10937.425      303.87042      9.0759909      9.076          9.076          747.62364    
        67   0             -654.63542      11813.479      17237.58       7337.4511      10865.406     -5517.2796      9356.7104      401.30395      9.0759909      9.076          9.076          747.62364    
        68   0             -654.65245      11371.086      16886.02       6922.5617      10304.677     -5751.177       9119.2153      394.07709      9.0759909      9.076          9.076          747.62364    
        69   0             -654.6674       12062.113      17626.476      7605.0814      10954.783     -5347.8186      8021.965       416.1904       9.0759909      9.076          9.076          747.62364    
        70   0             -654.68878      11632.456      17252.087      7195.348       10449.933     -5958.0827      7882.0163      413.93548      9.0759909      9.076          9.076          747.62364    
        71   0             -654.70056      10817.922      16503.491      6475.7117      9474.562      -6854.6139      8369.2285      425.65412      9.0759909      9.076          9.076          747.62364    
        72   0             -654.72021      10939.124      16668.334      6611.6721      9537.3673     -7479.7509      8106.0734      455.18608      9.0759909      9.076          9.076          747.62364    
        73   0             -654.74822      12538.425      18216.281      8145.6898      11253.302     -7449.4625      6672.8343      559.22842      9.0759909      9.076          9.076          747.62364    
        74   0             -654.77346      13450.008      19138.92       9095.4662      12115.639     -7853.4305      5908.4064      657.2957       9.0759909      9.076          9.076          747.62364    
        75   0             -654.80392      13654.241      19413.182      9441.279       12108.263     -8673.6259      5943.1019      711.97491      9.0759909      9.076          9.076          747.62364    
        76   0             -654.83423      14954.271      20678.211      11018.864      13165.737     -8388.8374      5275.6603      867.00398      9.0759909      9.076          9.076          747.62364    
        77   0             -654.86563      16338.758      22023.552      12833.938      14158.783     -7738.4134      4728.3905      989.24755      9.0759909      9.076          9.076          747.62364    
        78   0             -654.90225      17948.528      23624.103      15105.786      15115.694     -6524.4381      4283.1726      1053.5536      9.0759909      9.076          9.076          747.62364    
        79   0             -654.94341      18924.935      24592.683      16707.369      15474.752     -5476.3709      4161.6987      965.42351      9.0759909      9.076          9.076          747.62364    
        80   0             -654.9779       19989.036      25642.226      18158.91       16165.97      -4009.6229      3667.5023      947.10703      9.0759909      9.076          9.076          747.62364    
        81   0             -655.00973      20042.566      25663.831      18485.76       15978.106     -3154.0542      3900.492       853.3148       9.0759909      9.076          9.076          747.62364    
        82   0             -655.04249      20698.07       26315.324      19345.856      16433.029     -1878.8641      3733.8672      835.34063      9.0759909      9.076          9.076          747.62364    
        83   0             -655.07752      21313.372      26941.535      20152.063      16846.518     -845.11328      3732.8933      818.85206      9.0759909      9.076          9.076          747.62364    
        84   0             -655.11488      22093.277      27760.287      21143.044      17376.502     -189.0126       3786.9509      801.27655      9.0759909      9.076          9.076          747.62364    
        85   0             -655.15304      23151.445      28900.448      22458.078      18095.81      -80.628867      3833.5768      790.9193       9.0759909      9.076          9.076          747.62364    
        86   0             -655.18957      24471.56       30356.761      24101.802      18956.118     -677.23054      3883.7126      789.15431      9.0759909      9.076          9.076          747.62364    
        87   0             -655.2231       25982.415      32057.085      26007.043      19883.117     -1947.1232      3938.3294      796.17688      9.0759909      9.076          9.076          747.62364    
        88   0             -655.24961      26894.031      33081.901      27179.073      20421.117     -2803.445       3949.8717      806.26128      9.0759909      9.076          9.076          747.62364    
        89   0             -655.27532      27298.292      33510.538      27695.272      20689.067     -2938.445       3864.2386      829.32898      9.0759909      9.076          9.076          747.62364    
        90   0             -655.30216      27684.513      33941.985      28162.998      20948.556     -2995.449       3727.5923      893.74702      9.0759909      9.076          9.076          747.62364    
        91   0             -655.33328      28038.678      34386.434      28560.531      21169.069     -2902.9354      3523.7258      1088.8725      9.0759909      9.076          9.076          747.62364    
        92   0             -655.37526      28570.026      35119.335      29086.196      21504.547     -2646.3806      3163.2724      1458.0154      9.0759909      9.076          9.076          747.62364    
        93   0             -655.41815      29236.52       36047.173      29676.667      21985.721     -2234.6956      2771.1422      1807.1349      9.0759909      9.076          9.076          747.62364    
        94   0             -655.46694      30279.395      37399.538      30574.357      22864.29      -1784.05        2380.2435      2124.6336      9.0759909      9.076          9.076          747.62364    
        95   0             -655.52385      31838.423      39296.424      31897.45       24321.394     -1367.7582      2143.9607      2411.9001      9.0759909      9.076          9.076          747.62364    
        96   0             -655.58814      34082.475      41881.649      33785.208      26580.568     -1100.285       2275.804       2680.3162      9.0759909      9.076          9.076          747.62364    
        97   0             -655.65463      37184.563      45292.721      36381.962      29879.005     -1163.3277      2957.6694      2895.3166      9.0759909      9.076          9.076          747.62364    
        98   0             -655.7077       40685.95       49005.567      39326.752      33725.529     -1669.9613      3878.6887      2981.8065      9.0759909      9.076          9.076          747.62364    
        99   0             -655.74503      43856.881      52289.385      42059.525      37221.734     -2418.8682      4224.9258      2919.9252      9.0759909      9.076          9.076          747.62364    
       100   0             -655.77852      45218.203      53719.227      43367.715      38567.668     -2691.814       3327.7081      2790.9319      9.0759909      9.076          9.076          747.62364    
       101   0             -655.81083      45643.899      54166.711      43923.447      38841.538     -2603.945       2761.9601      2745.9289      9.0759909      9.076          9.076          747.62364    
       102   0             -655.84155      46509.621      54946.032      44766.326      39816.506     -2967.6426      2811.9141      2687.3011      9.0759909      9.076          9.076          747.62364    
       103   0             -655.87261      44555.216      53096.584      43219.518      37349.547     -1873.1281      1978.774       2636.3072      9.0759909      9.076          9.076          747.62364    
       104   0             -655.90669      47052.412      55385.267      45380.034      40391.935     -2672.3474      2520.3833      2555.5099      9.0759909      9.076          9.076          747.62364    
       105   0             -655.93424      46592.457      54951.947      44970.748      39854.677     -2086.1265      2424.7926      2451.8862      9.0759909      9.076          9.076          747.62364    
       106   0             -655.95964      47423.572      55787.769      45726.352      40756.595     -1558.4724      2210.8345      2368.0209      9.0759909      9.076          9.076          747.62364    
       107   0             -655.98531      47705.259      56072.168      45999.045      41044.564     -1031.9825      2066.7499      2250.7055      9.0759909      9.076          9.076          747.62364    
       108   0             -656.01207      48698.961      57057.586      47000.12       42039.177     -545.87343      1743.7232      2152.5144      9.0759909      9.076          9.076          747.62364    
       109   0             -656.04008      49438.23       57787.696      47847.253      42679.742     -290.76348      1511.6389      2027.6938      9.0759909      9.076          9.076          747.62364    
       110   0             -656.06972      50603.878      58948.321      49189.239      43674.074     -253.74224      1230.2801      1918.3281      9.0759909      9.076          9.076          747.62364    
       111   0             -656.10314      51610.606      59971.212      50477.719      44382.888     -523.33419      1168.153       1798.9919      9.0759909      9.076          9.076          747.62364    
       112   0             -656.14101      53002.971      61423.207      52100.321      45485.384     -681.9925       1174.594       1730.6107      9.0759909      9.076          9.076          747.62364    
       113   0             -656.18025      53257.881      61752.878      52466.731      45554.034     -1146.4976      1394.0206      1605.8253      9.0759909      9.076          9.076          747.62364    
       114   0             -656.21988      55575.569      64194.234      54669.08       47863.394     -946.46812      409.42687      1616.038       9.0759909      9.076          9.076          747.62364    
       115   0             -656.26673      55405.038      64126.702      54384.375      47704.037     -1852.9987      233.61791      1459.5472      9.0759909      9.076          9.076          747.62364    
       116   0             -656.31335      57668.806      66550.124      56396.282      50060.013     -1728.4196     -965.13586      1458.2535      9.0759909      9.076          9.076          747.62364    
       117   0             -656.35963      59491.334      68493.127      57890.189      52090.686     -1930.2228     -1386.1339      1458.7137      9.0759909      9.076          9.076          747.62364    
       118   0             -656.40572      61636.851      70731.063      59590.851      54588.639     -2157.0659     -1066.2235      1509.4865      9.0759909      9.076          9.076          747.62364    
       119   0             -656.44736      64150.618      73294.197      61561.893      57595.763     -2279.9894     -228.34477      1641.9151      9.0759909      9.076          9.076          747.62364    
       120   0             -656.48505      65830.672      74971.194      62865.017      59655.806     -2363.2998      164.30549      1794.5998      9.0759909      9.076          9.076          747.62364    
       121   0             -656.52923      67235.981      76328.021      64109.737      61270.184     -2101.9123     -439.81784      1908.8         9.0759909      9.076          9.076          747.62364    
       122   0             -656.58127      68566.344      77527.205      65351.507      62820.32      -1780.6905     -1023.9444      1946.1529      9.0759909      9.076          9.076          747.62364    
       123   0             -656.63907      70691.544      79500.984      67576.277      64997.371     -623.32752     -2417.0215      1939.8513      9.0759909      9.076          9.076          747.62364    
       124   0             -656.69275      71611.619      80249.718      68558.341      66026.797     -387.60647     -2993.6939      1895.8034      9.0759909      9.076          9.076          747.62364    
       125   0             -656.74343      73766.9        82266.822      70808.699      68225.18       553.01705     -3953.7937      1880.4319      9.0759909      9.076          9.076          747.62364    
       126   0             -656.79179      74972.375      83321.606      71960.099      69635.421      467.43838     -4039.0423      1898.6151      9.0759909      9.076          9.076          747.62364    
       127   0             -656.83897      77050.627      85267.749      73907.822      71976.311      739.38451     -3882.9311      1985.4451      9.0759909      9.076          9.076          747.62364    
       128   0             -656.88199      78300.412      86375.638      74911.346      73614.25       606.63904     -3358.0536      2132.4535      9.0759909      9.076          9.076          747.62364    
       129   0             -656.91868      79796.679      87729.718      76279.846      75380.472      1305.3989     -3560.2148      2225.6228      9.0759909      9.076          9.076          747.62364    
       130   0             -656.95374      80340.362      88083.73       76653.226      76284.13       1167.7786     -3503.5013      2334.6848      9.0759909      9.076          9.076          747.62364    
       131   0             -656.9893       82532.432      90138.054      78811.166      78648.075      2224.2096     -4059.643       2374.088       9.0759909      9.076          9.076          747.62364    
       132   0             -657.02739      81804.452      89116.128      77812.273      78484.955      953.42156     -3851.3087      2523.74        9.0759909      9.076          9.076          747.62364    
       133   0             -657.06667      86070.218      93307.263      82102.731      82800.661      2988.5507     -4825.9929      2451.726       9.0759909      9.076          9.076          747.62364    
       134   0             -657.10372      85542.14       92492.201      81346.556      82787.661      1950.8841     -4879.5783      2636.8391      9.0759909      9.076          9.076          747.62364    
       135   0             -657.1366       87616.932      94455.621      83378.459      85016.715      2197.3106     -5359.7959      2539.4764      9.0759909      9.076          9.076          747.62364    
       136   0             -657.16885      86478.995      92989.737      82199.779      84247.469      852.831       -5398.6084      2604.3464      9.0759909      9.076          9.076          747.62364    
       137   0             -657.20344      91219.919      97778.477      87064.113      88817.166      1317.6592     -6343.7894      2252.6582      9.0759909      9.076          9.076          747.62364    
       138   0             -657.23742      90745.164      96974.917      86619.868      88640.707      508.87938     -5960.3939      2202.4886      9.0759909      9.076          9.076          747.62364    
       139   0             -657.2662       92148.675      98236.411      87881.351      90328.264      115.42735     -6721.2834      1839.6051      9.0759909      9.076          9.076          747.62364    
       140   0             -657.2898       91108.327      96989.715      87014.283      89320.983      2028.722      -5411.6062      1760.2309      9.0759909      9.076          9.076          747.62364    
       141   0             -657.31615      94799.678      100618.98      90533.914      93246.143      81.479054     -6477.8448      1473.1908      9.0759909      9.076          9.076          747.62364    
       142   0             -657.34065      94148.886      99778.324      90082.311      92586.024      1018.4407     -5930.9485      1269.1671      9.0759909      9.076          9.076          747.62364    
       143   0             -657.36417      96188.605      101712.45      92230.348      94623.022      1552.7979     -5680.9739      966.85264      9.0759909      9.076          9.076          747.62364    
       144   0             -657.38758      95531.801      100883.87      91805.412      93906.117      1515.7964     -5374.9295      871.17735      9.0759909      9.076          9.076          747.62364    
       145   0             -657.41197      98720.929      103981.48      95212.09       96969.216      2053.9571     -5131.7737      466.31599      9.0759909      9.076          9.076          747.62364    
       146   0             -657.43676      97691.833      102756.92      94555.615      95762.966      2316.2233     -4660.0897      374.41616      9.0759909      9.076          9.076          747.62364    
       147   0             -657.4625       101021.38      105952.41      98308.045      98803.68       2735.6334     -4625.3186     -76.72371       9.0759909      9.076          9.076          747.62364    
       148   0             -657.48962      99422.006      104122.47      97320.004      96823.54       3514.9651     -4240.1747     -132.64283      9.0759909      9.076          9.076          747.62364    
       149   0             -657.51943      104561.56      109059.99      103166.02      101458.66      4017.9957     -4462.6275     -645.84424      9.0759909      9.076          9.076          747.62364    
       150   0             -657.54646      103257.32      107619.14      102398.11      99754.711      4626.9773     -4490.3858     -595.45967      9.0759909      9.076          9.076          747.62364    
       151   0             -657.57001      103601.51      107839.04      102990.38      99975.102      5245.543      -4282.5738     -583.70027      9.0759909      9.076          9.076          747.62364    
       152   0             -657.59344      104732.05      108876.75      104371.24      100948.15      4844.9936     -4683.7797     -682.28929      9.0759909      9.076          9.076          747.62364    
       153   0             -657.61635      105275.62      109278.46      105190.76      101357.63      6130.0137     -4039.6168     -642.49199      9.0759909      9.076          9.076          747.62364    
       154   0             -657.63918      105518.38      109492.58      105592.22      101470.34      5859.2738     -4704.1423     -620.85915      9.0759909      9.076          9.076          747.62364    
       155   0             -657.66084      107128.32      110967.75      107396.46      103020.77      6639.8472     -3910.0115     -640.32728      9.0759909      9.076          9.076          747.62364    
       156   0             -657.68203      106482.23      110384.09      106773.61      102289         5906.4495     -5039.0635     -462.14562      9.0759909      9.076          9.076          747.62364    
       157   0             -657.70539      108311.5       112083.16      108765.1       104086.24      6614.2997     -4186.7305     -451.51811      9.0759909      9.076          9.076          747.62364    
       158   0             -657.72904      108684.04      112471.26      109148.59      104432.28      6101.6792     -4585.6236     -345.75313      9.0759909      9.076          9.076          747.62364    
       159   0             -657.75493      110387.43      114074.87      110956.77      106130.65      6313.8563     -3986.6003     -301.53042      9.0759909      9.076          9.076          747.62364    
       160   0             -657.78129      110629.19      114374.22      111163.86      106349.49      5235.7625     -4589.163      -213.75815      9.0759909      9.076          9.076          747.62364    
       161   0             -657.80909      112663.77      116255.9       113411.96      108323.44      5534.3732     -3898.78       -269.20309      9.0759909      9.076          9.076          747.62364    
       162   0             -657.83398      113355.76      116926.01      114263.43      108877.84      5036.8073     -4234.2922     -239.45838      9.0759909      9.076          9.076          747.62364    
       163   0             -657.8605       115953.12      119251.83      117424.7       111182.84      6243.0708     -3393.3078     -333.22223      9.0759909      9.076          9.076          747.62364    
       164   0             -657.88197      115584.84      118978.66      117110.15      110665.72      5157.6135     -4353.8015     -106.52977      9.0759909      9.076          9.076          747.62364    
       165   0             -657.90882      118054.62      121178.77      120133.07      112852         6667.8685     -3351.0488      26.947917      9.0759909      9.076          9.076          747.62364    
       166   0             -657.93259      118023.12      121143.21      119978.96      112947.2       5738.0021     -3986.1117      433.23168      9.0759909      9.076          9.076          747.62364    
       167   0             -657.95515      119841.63      122739.55      122070.38      114714.97      7529.2707     -2701.2466      653.65106      9.0759909      9.076          9.076          747.62364    
       168   0             -657.97879      120212.61      123013.47      122274.6       115349.75      6751.5504     -3485.7694      1045.5064      9.0759909      9.076          9.076          747.62364    
       169   0             -658.00076      120378         123235.02      122294.91      115604.07      8274.1617     -2412.8716      1319.0936      9.0759909      9.076          9.076          747.62364    
       170   0             -658.02152      122379.34      124940.84      124306.56      117890.63      6623.7388     -4052.521       1844.7124      9.0759909      9.076          9.076          747.62364    
       171   0             -658.04572      122695.28      125280.8       124401.56      118403.47      7473.7282     -3248.8943      2224.2271      9.0759909      9.076          9.076          747.62364    
       172   0             -658.05195      121635.61      124491.53      123155.36      117259.94      9689.4506     -1490.9736      2198.7523      9.0759909      9.076          9.076          747.62364    
       173   0             -658.07874      122545.17      125448.83      123857.2       118329.48      10526.08      -1045.2273      2703.1775      9.0759909      9.076          9.076          747.62364    
       174   0             -658.08667      123377.13      126049.86      124697.33      119384.2       8443.1928     -2412.6106      2909.738       9.0759909      9.076          9.076          747.62364    
       175   0             -658.10838      123698.43      126526.78      124738.38      119830.13      8440.6423     -1570.5207      3242.2697      9.0759909      9.076          9.076          747.62364    
       176   0             -658.11973      123678.59      126864.69      124518.65      119652.43      11266.796     -148.60387      3362.3822      9.0759909      9.076          9.076          747.62364    
       177   0             -658.13543      124299.11      127604.79      124851.94      120440.61      12023.556     -121.38462      3650.6484      9.0759909      9.076          9.076          747.62364    
       178   0             -658.14947      124376.36      127481.38      124775.37      120872.33      9921.0013     -841.3875       3758.0442      9.0759909      9.076          9.076          747.62364    
       179   0             -658.1652       124502.54      127892.93      124693.46      120921.22      10058.236      321.03815      3919.3132      9.0759909      9.076          9.076          747.62364    
       180   0             -658.18069      125854.54      129347.88      125878.08      122337.65      10802.651     -399.25748      4175.0021      9.0759909      9.076          9.076          747.62364    
       181   0             -658.19751      125202.31      128893.78      124791.61      121921.55      10695.781      160.68089      4128.0317      9.0759909      9.076          9.076          747.62364    
       182   0             -658.21215      126295.5       130044.58      125906.72      122935.21      9516.0224      507.48305      4278.03        9.0759909      9.076          9.076          747.62364    
       183   0             -658.22932      125849.3       129878.98      124966.08      122702.84      10458.867      495.79202      4153.6496      9.0759909      9.076          9.076          747.62364    
       184   0             -658.24614      126438.6       130512.91      125404.52      123398.37      9412.6294      462.67205      4319.4354      9.0759909      9.076          9.076          747.62364    
       185   0             -658.26407      126562.61      130942.14      125259.77      123485.91      9815.8611      822.13474      4124.2437      9.0759909      9.076          9.076          747.62364    
       186   0             -658.2847       127370         131724.33      125967.79      124417.87      8720.7832      463.86242      4395.4213      9.0759909      9.076          9.076          747.62364    
       187   0             -658.30797      127492.21      132146.95      125821.66      124508.02      8586.6319      759.07803      4181.4942      9.0759909      9.076          9.076          747.62364    
       188   0             -658.33494      128444.39      133059.1       126757.42      125516.64      7634.565       270.52783      4378.9161      9.0759909      9.076          9.076          747.62364    
       189   0             -658.3624       128859.67      133782.8       126895.34      125900.87      7383.6734      817.89496      3985.632       9.0759909      9.076          9.076          747.62364    
       190   0             -658.38853      129601.2       134401.29      127600.5       126801.82      6401.144       393.43305      4394.8184      9.0759909      9.076          9.076          747.62364    
       191   0             -658.41434      130395.26      135423.23      128199.96      127562.59      6202.1395      641.84028      4162.8213      9.0759909      9.076          9.076          747.62364    
       192   0             -658.43996      131116.51      136142.39      128836.69      128370.44      5678.8245      406.31211      4414.3799      9.0759909      9.076          9.076          747.62364    
       193   0             -658.46684      132069.72      137339.81      129604.39      129264.95      5800.1769      799.36327      4130.4363      9.0759909      9.076          9.076          747.62364    
       194   0             -658.49499      132840.88      138048.79      130334.84      130139         5350.0458      436.2792       4609.7982      9.0759909      9.076          9.076          747.62364    
       195   0             -658.52287      133988.68      139529.91      131287.87      131148.25      5855.133       1181.4915      4135.0506      9.0759909      9.076          9.076          747.62364    
       196   0             -658.55091      134715.98      140200.73      131987.57      131959.64      5446.0278      896.53919      4633.0292      9.0759909      9.076          9.076          747.62364    
       197   0             -658.57869      136021.76      141817.26      133141.92      133106.11      5986.8376      1778.9273      4161.5362      9.0759909      9.076          9.076          747.62364    
       198   0             -658.60719      136787.27      142505.09      133883.11      133973.59      5530.4691      1346.2982      4819.2225      9.0759909      9.076          9.076          747.62364    
       199   0             -658.63614      138341.73      144425         135274.97      135325.23      6301.1688      2405.6415      4281.426       9.0759909      9.076          9.076          747.62364    
       200   0             -658.66702      139266.62      145304.46      136124.13      136371.26      6035.5982      1847.8974      5035.2885      9.0759909      9.076          9.076          747.62364    
       201   0             -658.69962      141079.07      147536.15      137735.65      137965.42      7157.5667      3040.3851      4526.8409      9.0759909      9.076          9.076          747.62364    
       202   0             -658.73416      142188.43      148588.59      138726.24      139250.44      7179.2152      2184.7414      5360.9528      9.0759909      9.076          9.076          747.62364    
       203   0             -658.7662       143864.53      150657.5       140209.51      140726.56      8247.2511      3245.8366      5038.6455      9.0759909      9.076          9.076          747.62364    
       204   0             -658.79624      145118.53      151917.39      141362.64      142075.57      8320.7302      2528.3106      5731.076       9.0759909      9.076          9.076          747.62364    
       205   0             -658.82645      146755.67      154114.9       142758.54      143393.57      8867.6107      3859.0998      5311.2529      9.0759909      9.076          9.076          747.62364    
       206   0             -658.85659      147991.83      155339.8       143868.62      144767.07      8001.7251      2348.8262      6372.9946      9.0759909      9.076          9.076          747.62364    
       207   0             -658.88681      149425.52      157454.4       144932.44      145889.73      8056.7719      3493.1958      6056.9865      9.0759909      9.076          9.076          747.62364    
       208   0             -658.91243      150393.03      158400.27      145644.56      147134.28      7341.2758      1983.6316      6830.2715      9.0759909      9.076          9.076          747.62364    
       209   0             -658.9351       151322.27      160031.25      146147.99      147787.57      7460.707       3455.7903      6378.8479      9.0759909      9.076          9.076          747.62364    
       210   0             -658.95555      152288.86      160965.58      146889.94      149011.06      7024.2687      2509.8534      6836.1051      9.0759909      9.076          9.076          747.62364    
       211   0             -658.97173      152633.12      161740.84      146857.31      149301.22      6809.1011      3008.9883      6786.8881      9.0759909      9.076          9.076          747.62364    
       212   0             -658.98564      153740.68      162570.32      147875.88      150775.83      6657.0756      2070.8616      6909.5231      9.0759909      9.076          9.076          747.62364    
       213   0             -659.0013       153865.3       163226.7       147606.46      150762.75      6450.5228      2746.0463      6703.83        9.0759909      9.076          9.076          747.62364    
       214   0             -659.01544      154614.19      163997.08      148154.83      151690.66      6223.3198      2520.0888      6798.2482      9.0759909      9.076          9.076          747.62364    
       215   0             -659.02804      154823.32      164770.42      147968.25      151731.28      6083.2114      2768.5686      6450.0147      9.0759909      9.076          9.076          747.62364    
       216   0             -659.04282      155825.08      165520.56      148910.97      153043.71      5786.2829      2667.256       6682.5389      9.0759909      9.076          9.076          747.62364    
       217   0             -659.05605      156027.66      166095.15      148790.57      153197.25      5589.4337      2303.9424      6609.0419      9.0759909      9.076          9.076          747.62364    
       218   0             -659.06827      157208.08      166997.57      149957.14      154669.55      5345.384       3283.6142      6683.9799      9.0759909      9.076          9.076          747.62364    
       219   0             -659.08187      157252.93      167443.7       149729.03      154586.06      5105.6987      2557.5641      6384.1561      9.0759909      9.076          9.076          747.62364    
       220   0             -659.0965       158194.9       168248.74      150644.12      155691.82      4816.6843      3213.1265      6324.0465      9.0759909      9.076          9.076          747.62364    
       221   0             -659.10937      158291.96      168528.25      150490.17      155857.48      4206.1581      2293.9637      6073.6163      9.0759909      9.076          9.076          747.62364    
       222   0             -659.12679      159650.94      169797         152092.6       157063.23      3495.9117      2292.1995      6225.1033      9.0759909      9.076          9.076          747.62364    
       223   0             -659.14628      161684.46      170488.86      155683.85      158880.66      2769.0583      2804.1244      6369.6417      9.0759909      9.076          9.076          747.62364    
       224   0             -659.17401      162229.8       169059.48      158591.12      159038.79     -284.86136      1222.3433      6679.7861      9.0759909      9.076          9.076          747.62364    
       225   0             -659.21273      162195.64      167609.98      160353         158623.94     -2484.7794      147.52666      6923.3853      9.0759909      9.076          9.076          747.62364    
       226   0             -659.24889      161997.85      169170.52      158864.67      157958.35     -1372.5962      434.30688      6997.3344      9.0759909      9.076          9.076          747.62364    
       227   0             -659.26313      162537.71      173060.18      156424.65      158128.3       1631.2109      2032.9932      6856.796       9.0759909      9.076          9.076          747.62364    
       228   0             -659.27959      162887.83      173151.22      157357.94      158154.35      874.32644      3019.9273      6514.0417      9.0759909      9.076          9.076          747.62364    
       229   0             -659.29209      163610.13      172888.51      158591.86      159350         0.0062530905   2019.2486      7024.9395      9.0759909      9.076          9.076          747.62364    
       230   0             -659.30331      164481.67      175180.28      157916.49      160348.24      1614.1088      2480.2164      6917.9209      9.0759909      9.076          9.076          747.62364    
       231   0             -659.31639      164758.13      174885.1       158737.98      160651.32      630.08804      2576.8233      6525.5185      9.0759909      9.076          9.076          747.62364    
       232   0             -659.32793      165839.23      176491.51      158825.02      162201.16      942.56909      2245.0625      6875.3275      9.0759909      9.076          9.076          747.62364    
       233   0             -659.33818      166374.37      174257.81      162202.57      162662.71     -2143.5669      1547.5306      6491.9757      9.0759909      9.076          9.076          747.62364    
       234   0             -659.35001      167173.89      174857.33      163096.57      163567.77     -2618.5184      1622.0345      6275.3563      9.0759909      9.076          9.076          747.62364    
       235   0             -659.3583       167788.23      178478.15      160507.43      164379.12      391.9641       2465.7036      6217.2622      9.0759909      9.076          9.076          747.62364    
       236   0             -659.37433      168788.91      179663.52      161431.41      165271.82     -83.334802      2498.9297      6173.7562      9.0759909      9.076          9.076          747.62364    
       237   0             -659.38234      169014.85      177851.22      163840.13      165353.21     -2284.2442      1993.3775      5986.8914      9.0759909      9.076          9.076          747.62364    
       238   0             -659.4044       170340.98      180476.59      163608.34      166937.99     -1052.8864      2401.9665      5921.4659      9.0759909      9.076          9.076          747.62364    
       239   0             -659.40952      171800.41      182466.66      164843.02      168091.56     -1294.403       1758.1624      5641.8224      9.0759909      9.076          9.076          747.62364    
       240   0             -659.42333      173049.24      184274.14      166297.67      168575.91     -2024.247       3542.4086      4434.2168      9.0759909      9.076          9.076          747.62364    
       241   0             -659.44669      174163.34      185407.56      166811.74      170270.73     -1050.8198      1906.5287      5251.8239      9.0759909      9.076          9.076          747.62364    
       242   0             -659.46429      174340.51      185883.02      166856.55      170281.96     -2187.1625      3346.2848      4922.4857      9.0759909      9.076          9.076          747.62364    
       243   0             -659.48271      175409.59      186274.8       167798.21      172155.74     -1048.7123      2110.3006      5036.0263      9.0759909      9.076          9.076          747.62364    
       244   0             -659.50174      176023.01      187757.57      168312.72      171998.73     -702.92309      2901.1025      4294.6021      9.0759909      9.076          9.076          747.62364    
       245   0             -659.52324      178075.61      189521.7       170775.05      173930.09     -1108.4774      2465.2055      3973.5953      9.0759909      9.076          9.076          747.62364    
       246   0             -659.5436       179610.68      191722.13      172338.26      174771.64     -984.96961      2668.7878      2928.757       9.0759909      9.076          9.076          747.62364    
       247   0             -659.55545      181533.09      193434.98      174196.77      176967.53     -52.014865      1599.2146      3224.7937      9.0759909      9.076          9.076          747.62364    
       248   0             -659.56623      183049.13      195360.8       175712.08      178074.5       77.988865      2130.185       2751.8268      9.0759909      9.076          9.076          747.62364    
       249   0             -659.5729       183104.74      196112.42      175934.35      177267.45     -850.29825      2759.4652      2119.4386      9.0759909      9.076          9.076          747.62364    
       250   0             -659.57651      183577.85      196089.22      176692.33      177952        -1315.4351      1421.7678      2245.0751      9.0759909      9.076          9.076          747.62364    
       251   0             -659.58738      184562.47      197113.11      177873.38      178700.93     -1171.8878      397.78377      1759.0811      9.0759909      9.076          9.076          747.62364    
       252   0             -659.59818      186015.49      198878.59      179672.1       179495.78     -1122.1024      2800.5789      487.67178      9.0759909      9.076          9.076          747.62364    
       253   0             -659.60833      187885.13      200135.31      181931.82      181588.25     -613.88204      1899.6126      418.47501      9.0759909      9.076          9.076          747.62364    
       254   0             -659.61367      188020.91      200626.37      181805.25      181631.11     -453.50205     -317.95889      693.27022      9.0759909      9.076          9.076          747.62364    
       255   0             -659.61723      188102.76      201425.91      181683.56      181198.8      -640.90408     -66.95323      -92.732249      9.0759909      9.076          9.076          747.62364    
       256   0             -659.62527      189113.5       201737.44      182866.5       182736.56     -217.82069      1126.7902     -802.07556      9.0759909      9.076          9.076          747.62364    
       257   0             -659.6316       190250         200906.39      184225.13      185618.48      1248.9664     -1477.4313     -59.939012      9.0759909      9.076          9.076          747.62364    
       258   0             -659.64768      191188.68      198944.62      185120.99      189500.42      3239.5288     -4743.6413      435.22063      9.0759909      9.076          9.076          747.62364    
       259   0             -659.69157      191252.33      196705         184934.65      192117.34      4628.8909     -6901.4266      476.65272      9.0759909      9.076          9.076          747.62364    
       260   0             -659.74496      190723.36      198232.87      184481.49      189455.7       3711.0291     -3635.8571     -986.33867      9.0759909      9.076          9.076          747.62364    
       261   0             -659.75776      190381.14      201671.41      184364.39      185107.63      1064.0527      346.73563     -3582.7635      9.0759909      9.076          9.076          747.62364    
       262   0             -659.76487      190439.11      202442.46      184474.41      184400.45      162.65737     -387.60856     -4909.7531      9.0759909      9.076          9.076          747.62364    
       263   0             -659.77012      190731.82      201722.83      184667.53      185805.11      993.59468     -1593.1536     -4007.214       9.0759909      9.076          9.076          747.62364    
       264   0             -659.77187      191131.35      202831.89      185157.19      185404.95      1110.5016     -133.73038     -3473.8729      9.0759909      9.076          9.076          747.62364    
       265   0             -659.77372      191511.83      202607.35      185524.48      186403.67      1559.3692     -688.4979      -2840.1842      9.0759909      9.076          9.076          747.62364    
       266   0             -659.77562      191515.93      201076.88      185468.38      188002.54      1710.0815     -3127.2723     -3029.1895      9.0759909      9.076          9.076          747.62364    
       267   0             -659.77738      191675.47      201942.29      185908.46      187175.67      863.06125     -2732.2424     -4159.8089      9.0759909      9.076          9.076          747.62364    
       268   0             -659.77811      192051.14      203719.07      186361.29      186073.08      814.4953      -79.555665     -4142.1009      9.0759909      9.076          9.076          747.62364    
       269   0             -659.77903      192601.95      204390.04      186919.41      186496.41      1395.3771      103.14733     -3804.6708      9.0759909      9.076          9.076          747.62364    
       270   0             -659.78483      192743.61      204515.35      187303.9       186411.57      1196.8165     -838.60592     -4216.012       9.0759909      9.076          9.076          747.62364    
       271   0             -659.78631      192639.51      203849.04      187178.28      186891.21      1313.6181     -1420.6667     -4195.6972      9.0759909      9.076          9.076          747.62364    
       272   0             -659.78983      192917.83      203969.82      187771.77      187011.89      1268.0151     -904.7334      -3641.0163      9.0759909      9.076          9.076          747.62364    
       273   0             -659.79352      193421.64      202093.53      188369.27      189802.11      2286.3147     -3656.1989     -2742.6525      9.0759909      9.076          9.076          747.62364    
       274   0             -659.80109      194149.12      202940.18      189558.71      189948.48      2457.6861     -3495.7365     -2963.4967      9.0759909      9.076          9.076          747.62364    
       275   0             -659.80603      195280.55      205915.49      191161.18      188764.99      2273.8464     -1435.3611     -4852.2146      9.0759909      9.076          9.076          747.62364    
       276   0             -659.80867      195805.79      206863         192315.89      188238.49      1809.0907     -1203.0151     -6182.4832      9.0759909      9.076          9.076          747.62364    
       277   0             -659.82689      196544.58      203807.18      195679.86      190146.69      478.98091     -3882.4075     -4999.0242      9.0759909      9.076          9.076          747.62364    
       278   0             -659.8583       196652.05      201279.07      198008.81      190668.26     -1128.0605     -4547.6309     -4047.0028      9.0759909      9.076          9.076          747.62364    
       279   0             -659.89647      196432.78      203704.87      197488.05      188105.41     -1283.5389     -2146.2811     -4052.7012      9.0759909      9.076          9.076          747.62364    
       280   0             -659.91233      196497.33      207543.37      193736.23      188212.38      2353.2817     -2931.2078     -3886.3595      9.0759909      9.076          9.076          747.62364    
       281   0             -659.92176      196410.15      208289.19      193610.13      187331.14      2407.6546     -4111.59       -4114.0692      9.0759909      9.076          9.076          747.62364    
       282   0             -659.92834      196647.23      205292.62      196005.08      188643.99      1017.8044     -4110.1843     -4893.548       9.0759909      9.076          9.076          747.62364    
       283   0             -659.93367      197331.5       205716.14      194929.09      191349.28      3708.9493     -4834.2391     -5116.1225      9.0759909      9.076          9.076          747.62364    
       284   0             -659.93746      198318.33      209736.75      194815.73      190402.49      5111.9562     -2055.6257     -6051.3343      9.0759909      9.076          9.076          747.62364    
       285   0             -659.94557      198797.79      210381.05      195407.75      190604.56      5638.2001     -3260.9774     -6412.1847      9.0759909      9.076          9.076          747.62364    
       286   0             -659.94953      198704.71      208796.58      196539.88      190777.69      4489.3618     -3998.8168     -6602.4655      9.0759909      9.076          9.076          747.62364    
       287   0             -659.95048      198821.84      208411.52      195139.49      192914.51      6336.9787     -5935.5233     -6121.238       9.0759909      9.076          9.076          747.62364    
       288   0             -659.95056      198881.28      208095.65      195229.87      193318.32      6375.8135     -6144.181      -6065.7812      9.0759909      9.076          9.076          747.62364    
       289   0             -659.95272      198984.15      208377.31      197148.19      191426.94      4010.0509     -3423.4692     -6346.2244      9.0759909      9.076          9.076          747.62364    
       290   0             -659.95478      199711.09      210678.97      196148.49      192305.8       5609.1121     -3501.7545     -6396.7449      9.0759909      9.076          9.076          747.62364    
       291   0             -659.96126      199863.39      208323.17      198925.57      192341.43      3175.7019     -4230.8641     -7741.3645      9.0759909      9.076          9.076          747.62364    
       292   0             -659.96763      200653.72      211304.64      197526.28      193130.22      5606.7439     -4223.1021     -8910.8992      9.0759909      9.076          9.076          747.62364    
       293   0             -659.97547      201134.94      210056.16      198863.52      194485.15      5461.1005     -4717.6744     -9015.8971      9.0759909      9.076          9.076          747.62364    
       294   0             -659.98162      201870.21      211298.54      199454.16      194857.94      5825.3464     -3966.8608     -7831.1928      9.0759909      9.076          9.076          747.62364    
       295   0             -659.98715      202621.29      212486.81      199346.55      196030.52      6740.8942     -4214.4962     -7755.3939      9.0759909      9.076          9.076          747.62364    
       296   0             -659.99207      202561.99      210135.54      201104.78      196445.65      4967.0948     -4356.0526     -8608.8302      9.0759909      9.076          9.076          747.62364    
       297   0             -659.99401      202895.38      210127.01      199671.74      198887.4       7033.9269     -5673.8375     -9153.5406      9.0759909      9.076          9.076          747.62364    
       298   0             -659.99782      203585.55      209491.33      200503.16      200762.16      6920.6136     -4761.3947     -10693.374      9.0759909      9.076          9.076          747.62364    
       299   0             -660.01092      204271.63      210611.8       200735         201468.08      6405.3525     -3041.5962     -10139.837      9.0759909      9.076          9.076          747.62364    
       300   0             -660.03218      204577.61      205758.17      203227.75      204746.91      3625.8731     -2168.6732     -9998.7363      9.0759909      9.076          9.076          747.62364    
       301   0             -660.06442      204589.87      205079.61      201850.2       206839.79      3880.2898     -2629.5175     -10034.496      9.0759909      9.076          9.076          747.62364    
       302   0             -660.09564      204693.44      206978.77      200328.42      206773.13      4266.7336     -5084.7917     -10900.53       9.0759909      9.076          9.076          747.62364    
       303   0             -660.13306      204513.37      208502.48      199849.65      205187.99      3376.3189     -8111.6424     -10835.276      9.0759909      9.076          9.076          747.62364    
       304   0             -660.15908      204223.03      208844.17      199164.67      204660.26      3230.05       -6166.9459     -10543.681      9.0759909      9.076          9.076          747.62364    
       305   0             -660.17415      204806.83      211435.17      199544.84      203440.47      3232.0111     -7572.5908     -10183.028      9.0759909      9.076          9.076          747.62364    
       306   0             -660.18706      204615.09      207327.08      201320.02      205198.17      1919.1568     -4829.7258     -10404.477      9.0759909      9.076          9.076          747.62364    
       307   0             -660.19449      205184.99      210193.23      199677.2       205684.53      4175.2841     -1364.1861     -10882.555      9.0759909      9.076          9.076          747.62364    
       308   0             -660.20426      205821.39      211975.14      200112.48      205376.56      3964.5011     -3881.7781     -10456.071      9.0759909      9.076          9.076          747.62364    
       309   0             -660.21319      205841.36      209199.75      201508.74      206815.59      2240.6743     -6637.6808     -9850.9539      9.0759909      9.076          9.076          747.62364    
       310   0             -660.22402      206390.63      211540.03      200412.6       207219.25      2663.7713     -6142.038      -9932.5322      9.0759909      9.076          9.076          747.62364    
       311   0             -660.22893      207107.38      212859.38      200762.36      207700.41      2866.8685     -5407.9746     -10105.88       9.0759909      9.076          9.076          747.62364    
       312   0             -660.23604      207660.32      212758.25      201071.72      209151.01      2639.0329     -4751.1074     -10260.3        9.0759909      9.076          9.076          747.62364    
       313   0             -660.24245      207437.73      210551.19      203428.28      208333.72     -339.26337     -4396.4597     -10507.105      9.0759909      9.076          9.076          747.62364    
       314   0             -660.24615      207577.26      212356.23      200535.71      209839.83      2416.6618     -6402.0335     -10063.335      9.0759909      9.076          9.076          747.62364    
       315   0             -660.25739      208528.74      214942.07      201448.58      209195.58      1870.3063     -6985.3672     -10248.134      9.0759909      9.076          9.076          747.62364    
       316   0             -660.26293      208932.95      213147.96      201579.8       212071.09      2565.9465     -4063.2087     -10805.407      9.0759909      9.076          9.076          747.62364    
       317   0             -660.27081      209558.7       213538.1       201787.3       213350.71      2529.6159     -3611.3481     -10908.326      9.0759909      9.076          9.076          747.62364    
       318   0             -660.27841      209674.03      215793.99      201726.29      211501.82      1560.3142     -6857.4298     -10245.373      9.0759909      9.076          9.076          747.62364    
       319   0             -660.2864       209949.97      214230.15      203772.83      211846.92     -787.41643     -7311.3718     -10569.315      9.0759909      9.076          9.076          747.62364    
       320   0             -660.29877      210470.4       216408.52      201803.92      213198.75      1104.1283     -6301.5877     -11109.679      9.0759909      9.076          9.076          747.62364    
       321   0             -660.30131      210965.68      216889.95      202341.54      213665.55      1224.2227     -5480.7263     -11222.008      9.0759909      9.076          9.076          747.62364    
       322   0             -660.30619      211707.12      216410.28      202897.02      215814.06      1186.378      -5762.1896     -10877.88       9.0759909      9.076          9.076          747.62364    
       323   0             -660.3153       211832.43      216042.25      202648.57      216806.47      303.01195     -6727.3315     -10353.969      9.0759909      9.076          9.076          747.62364    
       324   0             -660.3283       212403.4       219236.49      203021.62      214952.1      -1278.5342     -6352.2439     -10872.648      9.0759909      9.076          9.076          747.62364    
       325   0             -660.33503      212893.86      218894.51      203452.3       216334.77     -761.98161     -5184.2044     -11870.8        9.0759909      9.076          9.076          747.62364    
       326   0             -660.34138      213396.94      218578.46      203806.48      217805.9      -719.92206     -5467.027      -12403.073      9.0759909      9.076          9.076          747.62364    
       327   0             -660.35317      213827.21      220648.49      204101.09      216732.04     -1871.1753     -5756.6169     -11918.827      9.0759909      9.076          9.076          747.62364    
       328   0             -660.36269      214449.22      220351.17      204293.51      218702.97     -1855.1385     -6357.7637     -11329.021      9.0759909      9.076          9.076          747.62364    
       329   0             -660.37031      215442.93      222600.56      205379.84      218348.4      -3730.6524     -3320.8718     -12058.475      9.0759909      9.076          9.076          747.62364    
       330   0             -660.38647      215944.4       223254.85      205923.43      218654.93     -5528.3421     -4445.5277     -12432.747      9.0759909      9.076          9.076          747.62364    
       331   0             -660.39704      215922.89      222077.45      205751.89      219939.33     -4991.5089     -6475.9939     -11700.302      9.0759909      9.076          9.076          747.62364    
       332   0             -660.40343      216203.21      221972.83      206018.65      220618.13     -5692.1813     -5455.9157     -11423.737      9.0759909      9.076          9.076          747.62364    
       333   0             -660.41477      217027.44      225961.7       207615.16      217505.48     -8348.4048     -3051.0647     -11141.743      9.0759909      9.076          9.076          747.62364    
       334   0             -660.44053      217488.79      225235.2       209577.32      217653.86     -10138.931     -5429.8097     -8514.8504      9.0759909      9.076          9.076          747.62364    
       335   0             -660.48685      216321.1       223179.97      210659.28      215124.06     -12407.288     -7426.8005     -5060.1962      9.0759909      9.076          9.076          747.62364    
       336   0             -660.52459      214375.71      220682.16      206768.58      215676.39     -13042.278     -7557.9768     -8182.5239      9.0759909      9.076          9.076          747.62364    
       337   0             -660.54698      214325.86      221899.07      205050.1       216028.4      -12800.82      -3398.3754     -11990.702      9.0759909      9.076          9.076          747.62364    
       338   0             -660.56266      215728.56      223015.47      207476.16      216694.04     -12160.08      -7452.71       -11040.238      9.0759909      9.076          9.076          747.62364    
       339   0             -660.57805      216611         223170.78      204641.64      222020.58     -11276.793     -8837.7706     -17215.736      9.0759909      9.076          9.076          747.62364    
       340   0             -660.62202      217855.13      225509.63      201317         226738.76     -12481.046     -2615.6492     -25068.698      9.0759909      9.076          9.076          747.62364    
       341   0             -660.69574      218469.14      225864.74      199516.18      230026.52     -12819.52       512.75319     -28330.464      9.0759909      9.076          9.076          747.62364    
       342   0             -660.74683      218804.39      225064.59      206801.4       224547.18     -10841.445     -1069.3019     -18223.793      9.0759909      9.076          9.076          747.62364    
       343   0             -660.76476      218749.18      224953.27      209432.11      221862.15     -12168.576     -7797.3974     -12478.006      9.0759909      9.076          9.076          747.62364    
       344   0             -660.7886       219128.22      219526.5       205050.91      232807.25     -12731.175     -13659.298     -15731.311      9.0759909      9.076          9.076          747.62364    
       345   0             -660.82784      219841.84      215117.96      207493         236914.58     -11541.742     -17170.961     -10949.196      9.0759909      9.076          9.076          747.62364    
       346   0             -660.89645      220390         217323.34      207740.67      236106        -12117.76      -12788.872     -12131.153      9.0759909      9.076          9.076          747.62364    
       347   0             -660.93142      220837.1       226591.03      209683.77      226236.49     -14608.612     -2769.5009     -14668.743      9.0759909      9.076          9.076          747.62364    
       348   0             -660.94897      220932.74      227047.12      211748.09      224003.01     -15045.582     -2850.7327     -12053.943      9.0759909      9.076          9.076          747.62364    
       349   0             -660.95768      220753.94      224826.01      208085.79      229350.03     -13791.902     -4777.2053     -16167.389      9.0759909      9.076          9.076          747.62364    
       350   0             -660.96167      221140.54      226325.58      206858.31      230237.74     -13850.909     -3724.2053     -18403.211      9.0759909      9.076          9.076          747.62364    
       351   0             -660.96847      221406.09      225928.62      209441.13      228848.53     -13045.928     -5422.596      -14085.344      9.0759909      9.076          9.076          747.62364    
       352   0             -660.97129      221335.15      225688.15      208124.61      230192.69     -13704.264     -5808.2895     -14926.074      9.0759909      9.076          9.076          747.62364    
       353   0             -660.97461      221490.09      227658.02      207896.18      228916.08     -14338.31      -3299.3591     -16118.038      9.0759909      9.076          9.076          747.62364    
       354   0             -660.97735      221880.16      228041.99      209436.53      228161.96     -13885.937     -1793.1904     -14972.622      9.0759909      9.076          9.076          747.62364    
       355   0             -660.9797       221997.76      225304.57      209116.05      231572.66     -12918.916     -4532.6819     -14044.292      9.0759909      9.076          9.076          747.62364    
       356   0             -660.98437      221860.47      225372.03      208910.42      231298.95     -13474.169     -5962.8016     -13692.92       9.0759909      9.076          9.076          747.62364    
       357   0             -660.98682      222046.12      229512.72      208745.58      227880.07     -15149.097     -2263.2381     -15848.433      9.0759909      9.076          9.076          747.62364    
       358   0             -660.98719      222209.79      230317.46      207415.66      228896.25     -15702.129     -1502.8536     -17892.632      9.0759909      9.076          9.076          747.62364    
       359   0             -660.99382      222676.66      226903.48      208442.82      232683.68     -13571.606     -4330.169      -15582.616      9.0759909      9.076          9.076          747.62364    
       360   0             -661.00098      223909.73      230232.64      210755.18      230741.36     -14144.214     -1757.0528     -13035.522      9.0759909      9.076          9.076          747.62364    
       361   0             -661.01959      224746.85      232262.68      209418.67      232559.21     -14206.002     -1589.2441     -14211.878      9.0759909      9.076          9.076          747.62364    
[...]
       420   0             -661.9744       234050.31      240153.41      222609.44      239388.09     -21759.141     -4098.1614     -12631.415      9.076          9.076          9.076          747.62439    
       421   0             -661.98173      234071.39      248355.57      214037.42      239821.17     -22853.242     -7259.019      -10174.705      9.076          9.076          9.076          747.62439    
       422   0             -661.99627      234547.42      260526.74      212019.4       231096.12     -26639.939     -13519.37       2892.1985      9.076          9.076          9.076          747.62439    
       423   0             -662.04874      233907.57      258376.72      218388.81      224957.17     -28272.592     -13841.365      6681.4254      9.076          9.076          9.076          747.62439    
       424   0             -662.15099      230300.69      241959.11      217884.28      231058.66     -26856.086     -7214.95       -7657.4236      9.076          9.076          9.076          747.62439    
       425   0             -662.17766      229881.87      238884.08      214113.72      236647.82     -26432.531     -5162.8046     -10031.524      9.076          9.076          9.076          747.62439    
       426   0             -662.19132      230549.26      248573.49      208652.67      234421.61     -27231.077     -9462.9653     -3302.1566      9.076          9.076          9.076          747.62439    
       427   0             -662.2035       231402.57      242963.84      220993.34      230250.53     -26429.14      -8227.2096     -1977.4592      9.076          9.076          9.076          747.62439    
       428   0             -662.22801      232009.05      239236.68      221197.31      235593.14     -23951.24      -8095.4342     -7607.8962      9.076          9.076          9.076          747.62439    
       429   0             -662.2318       232103.46      246078.84      211182.95      239048.6      -24045.706     -9903.5119     -6991.534       9.076          9.076          9.076          747.62439    
       430   0             -662.23271      232194.29      246022.64      210575.5       239984.74     -23833.604     -8465.393      -8219.0644      9.076          9.076          9.076          747.62439    
       431   0             -662.23795      232127.57      239810.05      219059.92      237512.74     -23569.759     -5188.1715     -10173.935      9.076          9.076          9.076          747.62439    
       432   0             -662.2441       232425.12      243599.45      220337.42      233338.5      -24544.058     -8971.5509     -4887.3754      9.076          9.076          9.076          747.62439    
       433   0             -662.25771      232531.21      247959.27      211220.22      238414.16     -24261.968     -12970.793     -5487.9815      9.076          9.076          9.076          747.62439    
       434   0             -662.26757      232575.98      236211.69      223033.22      238483.02     -23044.246     -7187.5323     -12258.819      9.076          9.076          9.076          747.62439    
       435   0             -662.27175      232829.25      235487.33      223171.77      239828.64     -22709.386     -5229.4677     -14339.262      9.076          9.076          9.076          747.62439    
       436   0             -662.2763       232977.26      246495.3       211494.73      240941.74     -23275.139     -10411.203     -9849.3339      9.076          9.076          9.076          747.62439    
       437   0             -662.28061      233220.87      251294.51      211697.33      236670.78     -24244.479     -12836.484     -4486.7884      9.076          9.076          9.076          747.62439    
       438   0             -662.29117      233080.42      241763.45      223426.01      234051.78     -23629.977     -8374.1485     -7930.8796      9.076          9.076          9.076          747.62439    
       439   0             -662.29209      233072.35      235882.96      222548.98      240785.1      -22956.753     -6603.3176     -11528.333      9.076          9.076          9.076          747.62439    
       440   0             -662.29305      233177.2       241061.41      216846.73      241623.48     -23323.398     -9058.0636     -9678.0813      9.076          9.076          9.076          747.62439    
       441   0             -662.30789      233797.25      235041.8       225905.36      240444.6      -22410.81      -5630.5339     -13318.115      9.076          9.076          9.076          747.62439    
       442   0             -662.31212      233932.27      240983.67      222023.44      238789.7      -23268.777     -8204.3269     -11067.826      9.076          9.076          9.076          747.62439    
       443   0             -662.31815      233722.97      242658.2       215521.27      242989.43     -22617.821     -11143.585     -10007.537      9.076          9.076          9.076          747.62439    
       444   0             -662.32312      233568.97      237004.23      222622.86      241079.81     -22509.565     -9853.9624     -9354.3241      9.076          9.076          9.076          747.62439    
       445   0             -662.32877      233878.78      240100.11      224634.44      236901.79     -23477.468     -7460.8468     -11633.899      9.076          9.076          9.076          747.62439    
       446   0             -662.33288      234002.44      243603.88      220360.32      238043.1      -23858.192     -9027.6908     -10357.269      9.076          9.076          9.076          747.62439    
       447   0             -662.33403      233941.31      240631.75      220817.1       240375.09     -23596.107     -7818.8887     -10491.968      9.076          9.076          9.076          747.62439    
       448   0             -662.33439      233938.96      238973.34      222780.59      240062.97     -23568.754     -7011.1495     -11046.182      9.076          9.076          9.076          747.62439    
       449   0             -662.33943      233924.66      235469.6       225717.7       240586.66     -22867.575     -5464.6863     -14101.165      9.076          9.076          9.076          747.62439    
       450   0             -662.34094      233990         242722.55      220531.49      238715.95     -23913.006     -8924.2839     -10917.231      9.076          9.076          9.076          747.62439    
       451   0             -662.34108      234014.27      244086.59      219741.3       238214.91     -24122.059     -9629.7028     -10252.908      9.076          9.076          9.076          747.62439    
       452   0             -662.34312      233933.67      239758.31      223413.36      238629.33     -23623.28      -7712.5037     -11907.538      9.076          9.076          9.076          747.62439    
       453   0             -662.34383      233889.68      240872.18      219083.75      241713.12     -23151.937     -9054.0409     -11121.604      9.076          9.076          9.076          747.62439    
       454   0             -662.34536      233877.18      237885.62      223380.45      240365.48     -23090.787     -7493.2448     -12154.164      9.076          9.076          9.076          747.62439    
       455   0             -662.34608      233988.57      242199.47      221933.34      237832.9      -23917.438     -9138.9473     -10373.874      9.076          9.076          9.076          747.62439    
       456   0             -662.34694      234118.03      246189.65      218636.45      237528        -24376.116     -10748.89      -9087.3157      9.076          9.076          9.076          747.62439    
       457   0             -662.35592      234151.38      237818.88      226798.01      237837.24     -23767.941     -6740.8639     -12588.61       9.076          9.076          9.076          747.62439    
       458   0             -662.3652       234211.24      241328.11      218889.5       242416.12     -24031.724     -9256.2539     -11069.357      9.076          9.076          9.076          747.62439    
       459   0             -662.37477      234235.56      240629.18      219254.19      242823.3      -25000.388     -9807.1018     -10510.07       9.076          9.076          9.076          747.62439    
       460   0             -662.37865      234175.22      231735.25      229176.14      241614.27     -24183.472     -5826.9788     -15145.726      9.076          9.076          9.076          747.62439    
       461   0             -662.39162      234097.71      236313.65      230159.43      235820.06     -25791.144     -7050.3018     -12616.5        9.076          9.076          9.076          747.62439    
       462   0             -662.41107      233690.81      233414.85      230087.59      237569.99     -25543.608     -5474.7665     -14234.525      9.076          9.076          9.076          747.62439    
       463   0             -662.41664      233551.93      232030.1       229899.95      238725.74     -25276.808     -4867.7887     -15070.143      9.076          9.076          9.076          747.62439    
       464   0             -662.42155      233451.07      232097.73      229777.08      238478.39     -25388.166     -4771.4584     -15107.102      9.076          9.076          9.076          747.62439    
       465   0             -662.42458      233379.23      235908.27      225299.75      238929.66     -25659.181     -6549.1731     -13791.537      9.076          9.076          9.076          747.62439    
       466   0             -662.42929      233119.4       240166.68      225013.35      234178.17     -26387.348     -8402.2322     -12357.844      9.076          9.076          9.076          747.62439    
       467   0             -662.43512      232536.37      242107.71      220060.07      235441.32     -25247.404     -9916.2525     -12738.09       9.076          9.076          9.076          747.62439    
       468   0             -662.43736      232449.02      236540.66      225256.48      235549.93     -24472.497     -7410.3082     -15045.72       9.076          9.076          9.076          747.62439    
       469   0             -662.44148      232626.91      236350.82      221785.74      239744.18     -23695.064     -8224.6743     -15015.223      9.076          9.076          9.076          747.62439    
       470   0             -662.44256      232876.07      230962.1       227756.72      239909.4      -23100.235     -5746.4372     -17065.203      9.076          9.076          9.076          747.62439    
       471   0             -662.45038      233240.48      236081.29      223828.37      239811.77     -23999.186     -7880.8312     -15212.169      9.076          9.076          9.076          747.62439    
       472   0             -662.45347      233327.71      237708.42      228321.96      233952.75     -26097.808     -8870.2359     -13632.042      9.076          9.076          9.076          747.62439    
       473   0             -662.45773      233292.63      238691.07      228644.96      232541.86     -27525.385     -10082.803     -12522.954      9.076          9.076          9.076          747.62439    
       474   0             -662.46356      233149.83      240825.29      220447.38      238176.83     -26753.963     -11405.017     -12079.877      9.076          9.076          9.076          747.62439    
       475   0             -662.46378      233159.88      239809.24      220248.91      239421.5      -26414.167     -11004.716     -12470.823      9.076          9.076          9.076          747.62439    
       476   0             -662.46706      233148.14      235127.85      227177.38      237139.17     -26400.917     -8631.3716     -13829.266      9.076          9.076          9.076          747.62439    
       477   0             -662.47347      233652.62      244429.47      224443.2       232085.2      -27929.146     -10625.47      -7888.372       9.076          9.076          9.076          747.62439    
       478   0             -662.49867      233596.36      245637.95      225563.11      229588.01     -28305.33      -9737.4292     -2916.5127      9.076          9.076          9.076          747.62439    
       479   0             -662.55635      232017.53      236206.83      228654.89      231190.88     -26955.412     -5990.9876     -6043.0949      9.076          9.076          9.076          747.62439    
       480   0             -662.59345      230357.12      238899.64      214842.23      237329.5      -27040.585     -9532.9051     -10107.619      9.076          9.076          9.076          747.62439    
       481   0             -662.59774      230193.83      228899.24      224543.95      237138.31     -26566.338     -6264.4347     -17666.217      9.076          9.076          9.076          747.62439    
       482   0             -662.60806      230452.44      230694.54      224690.66      235972.13     -27598.722     -8704.2499     -17034.454      9.076          9.076          9.076          747.62439    
       483   0             -662.6293       230338.49      230876.62      223782.88      236355.95     -27190.58      -7728.6061     -17232.115      9.076          9.076          9.076          747.62439    
       484   0             -662.63316      230407.73      239579.4       214043.59      237600.2      -27617.575     -11259.68      -12766.556      9.076          9.076          9.076          747.62439    
       485   0             -662.63721      230830.53      245408.77      210970.86      236111.95     -28161.606     -12519.038     -8378.033       9.076          9.076          9.076          747.62439    
       486   0             -662.64457      231410.63      240780.67      221812.63      231638.58     -27913.986     -8933          -9639.6323      9.076          9.076          9.076          747.62439    
       487   0             -662.74517      230339.5       243303.84      205925.33      241789.34     -24474.003     -6000.5597     -17643.045      9.076          9.076          9.076          747.62439    
       488   0             -662.9283       227844.29      241158.2       194790.57      247584.09     -22785.986     -5109.6004     -23317.54       9.076          9.076          9.076          747.62439    
       489   0             -663.07473      225342.72      223396.63      206764.28      245867.25     -24123.453     -10853.935     -19748.31       9.076          9.076          9.076          747.62439    
       490   0             -663.15194      224691.85      210940.33      221805.45      241329.76     -27377.532     -16857.763     -13972.199      9.076          9.076          9.076          747.62439    
       491   0             -663.20194      224833.57      232313.34      201404.66      240782.7      -29681.769     -21638.589     -10232.717      9.076          9.076          9.076          747.62439    
       492   0             -663.2236       225191.81      245119.75      195823.87      234631.81     -30408.45      -11183.277     -17106.966      9.076          9.076          9.076          747.62439    
       493   0             -663.24913      225326.52      229280.4       215616.87      231082.29     -31364.887     -11101.055     -16710.59       9.076          9.076          9.076          747.62439    
       494   0             -663.27937      225376.86      218694.67      220941.67      236494.24     -30705.784     -10038.62      -16184.692      9.076          9.076          9.076          747.62439    
       495   0             -663.29757      225487.46      227953.93      208800.17      239708.29     -30280.011     -13855.867     -13415.671      9.076          9.076          9.076          747.62439    
       496   0             -663.30137      225747.15      231426.89      206000.28      239814.29     -28636.643     -6022.4907     -19767.318      9.076          9.076          9.076          747.62439    
       497   0             -663.30137      225758.37      231607.14      205833.88      239834.09     -28617.611     -5967.3126     -19822.946      9.076          9.076          9.076          747.62439    
       498   0             -663.30537      225669.37      226386.25      211296.21      239325.64     -30533.022     -14748.95      -13072.05       9.076          9.076          9.076          747.62439    
       499   0             -663.30788      225833.67      234258.2       207588.74      235654.06     -29860.624     -6878.6058     -18577.922      9.076          9.076          9.076          747.62439    
       500   0             -663.31595      225643.79      222218.93      218897.2       235815.24     -30874.857     -12262.849     -14619.933      9.076          9.076          9.076          747.62439    
       501   0             -663.31766      225772.17      232488.15      208939.28      235889.08     -30018.742     -7401.3061     -18334.807      9.076          9.076          9.076          747.62439    
Loop time of 0.953223 on 1 procs for 500 steps with 64 atoms

99.7% CPU use with 1 MPI tasks x no OpenMP threads

Minimization stats:
  Stopping criterion = max iterations
  Energy initial, next-to-last, final = 
     -653.439999864312  -663.315954917227  -663.317664518087
  Force two-norm initial, final = 0.00061932427 3.5622531
  Force max component initial, final = 0.00013502438 2.3390522
  Final line search alpha, max atom move = 0.0059498891 0.013917101
  Iterations, force evaluations = 500 749

MPI task timing breakdown:
Section |  min time  |  avg time  |  max time  |%varavg| %total
---------------------------------------------------------------
Pair    | 0.9426     | 0.9426     | 0.9426     |   0.0 | 98.89
Neigh   | 0.0018671  | 0.0018671  | 0.0018671  |   0.0 |  0.20
Comm    | 0.003144   | 0.003144   | 0.003144   |   0.0 |  0.33
Output  | 0.0033909  | 0.0033909  | 0.0033909  |   0.0 |  0.36
Modify  | 0          | 0          | 0          |   0.0 |  0.00
Other   |            | 0.002219   |            |       |  0.23

Nlocal:             64 ave          64 max          64 min
Histogram: 1 0 0 0 0 0 0 0 0 0
Nghost:           1267 ave        1267 max        1267 min
Histogram: 1 0 0 0 0 0 0 0 0 0
Neighs:           6774 ave        6774 max        6774 min
Histogram: 1 0 0 0 0 0 0 0 0 0
FullNghs:        13548 ave       13548 max       13548 min
Histogram: 1 0 0 0 0 0 0 0 0 0

Total # of neighbors = 13548
Ave neighs/atom = 211.6875
Neighbor list builds = 4
Dangerous builds = 0
=========================================
Components of the Elastic Constant Tensor
=========================================
Elastic Constant C11all = -291690.544810399 GPa
Elastic Constant C22all = -596158.775557799 GPa
Elastic Constant C33all = -125188.08464355 GPa
Elastic Constant C12all = 304487.340857025 GPa
Elastic Constant C13all = 108277.2240608 GPa
Elastic Constant C23all = 104377.480342749 GPa
Elastic Constant C44all = 126386.270784165 GPa
Elastic Constant C55all = 421205.099190396 GPa
Elastic Constant C66all = -23245.1668532752 GPa
Elastic Constant C14all = 659355.696829722 GPa
Elastic Constant C15all = 132850.008342409 GPa
Elastic Constant C16all = 146542.25892536 GPa
Elastic Constant C24all = -149176.551898895 GPa
Elastic Constant C25all = 15495.0089157017 GPa
Elastic Constant C26all = -19783.3053526825 GPa
Elastic Constant C34all = -28714.7820210055 GPa
Elastic Constant C35all = 517468.595532162 GPa
Elastic Constant C36all = 44838.6590252875 GPa
Elastic Constant C45all = 34379.9464025825 GPa
Elastic Constant C46all = 158555.29194326 GPa
Elastic Constant C56all = 119196.68073194 GPa
=========================================
Average properties for a cubic crystal
=========================================
Bulk Modulus = 2360.742834378 GPa
Shear Modulus 1 = 174782.067707095 GPa
Shear Modulus 2 = -255029.90837872 GPa
Poisson Ratio = -1.04284509844993
Lattice constant (Angstroms) = 9.07599999684796;
Total wall time: 0:00:11
