LAMMPS (23 Jun 2022)
Lattice spacing in x,y,z = 4.25 4.25 4.25
Created orthogonal box = (0 0 0) to (4.25 4.25 4.25)
  1 by 1 by 1 MPI processor grid
Lattice spacing in x,y,z = 4.25 4.25 4.25
Created 4 atoms
  using lattice units in orthogonal box = (0 0 0) to (4.25 4.25 4.25)
  create_atoms CPU = 0.000 seconds
Lattice spacing in x,y,z = 4.25 4.25 4.25
Created 4 atoms
  using lattice units in orthogonal box = (0 0 0) to (4.25 4.25 4.25)
  create_atoms CPU = 0.000 seconds
Replicating atoms ...
  orthogonal box = (0 0 0) to (8.5 8.5 8.5)
  1 by 1 by 1 MPI processor grid
  64 atoms
  replicate CPU = 0.000 seconds
Reading MEAM library file library.meam with DATE: 2015-02-12
Neighbor list info ...
  update every 1 steps, delay 10 steps, check yes
  max neighbors/atom: 2000, page size: 100000
  master list distance cutoff = 6.6
  ghost atom cutoff = 6.6
  binsize = 3.3, bins = 3 3 3
  2 neighbor lists, perpetual/occasional/extra = 2 0 0
  (1) pair meam, perpetual
      attributes: full, newton on
      pair build: full/bin/atomonly
      stencil: full/bin/3d
      bin: standard
  (2) pair meam, perpetual, half/full from (1)
      attributes: half, newton on
      pair build: halffull/newton
      stencil: none
      bin: none
Setting up Verlet run ...
  Unit style    : metal
  Current step  : 0
  Time step     : 0.001
Per MPI rank memory allocation (min/avg/max) = 10.33 | 10.33 | 10.33 Mbytes
   Step           Lx          Atoms         Temp          PotEng           Lx             Ly             Lz           Press           Pxx            Pyy            Pzz      
         0   8.5                   64   300           -423.3406       8.5            8.5            8.5           -13617.129     -12896.163     -13890.031     -14065.193    
       100   8.4999999             64   173.77031     -421.90364      8.4999999      8.4999999      8.4999999     -6143.4397     -4313.4165     -7915.0535     -6201.849     
       200   8.4999998             64   171.71751     -421.27363      8.4999998      8.4999998      8.4999998     -1995.7833     -55.884455     -3697.605      -2233.8604    
       300   8.4999995             64   274.62846     -421.36715      8.4999995      8.4999995      8.4999995     -955.41799      107.289       -2378.132      -595.41094    
       400   8.4999993             64   213.54954     -420.18176      8.4999993      8.4999993      8.4999993      7241.3312      13827.556      3402.6854      4493.7521    
       500   8.4999991             64   302.89639     -420.42278      8.4999991      8.4999991      8.4999991      6831.4649      12105.068      2376.7188      6012.6076    
       600   8.499999              64   420.28151     -421.35213      8.499999       8.499999       8.499999       2249.7729      4259.124       2208.2984      281.89627    
       700   8.4999991             64   320.23074     -420.97437      8.4999991      8.4999991      8.4999991      3644.063       7347.8504      6213.3138     -2628.9753    
       800   8.4999992             64   272.65044     -420.97421      8.4999992      8.4999992      8.4999992      2871.3243      5517.1673      2884.658       212.14767    
       900   8.4999993             64   279.25808     -421.08013      8.4999993      8.4999993      8.4999993      1441.0714      2353.4225      225.94188      1743.8498    
      1000   8.4999995             64   270.09965     -420.67654      8.4999995      8.4999995      8.4999995      3879.8945      7008.909       4322.2307      308.54388    
      1100   8.4999997             64   316.91097     -420.6026       8.4999997      8.4999997      8.4999997      5741.3565      7146.4129      5700.582       4377.0747    
      1200   8.5                   64   340.71514     -420.80901      8.5            8.5            8.5            3617.8509      3393.5454      5340.8939      2119.1133    
      1300   8.5000005             64   337.34837     -421.10401      8.5000005      8.5000005      8.5000005      910.38519      2778.4733     -1211.6152      1164.2974    
      1400   8.5000009             64   324.34163     -421.15575      8.5000009      8.5000009      8.5000009      1080.0657     -1153.1016      465.41813      3927.8807    
      1500   8.5000015             64   362.07906     -421.43146      8.5000015      8.5000015      8.5000015     -328.63776      668.80833     -791.5551      -863.16652    
      1600   8.5000021             64   263.05855     -420.54288      8.5000021      8.5000021      8.5000021      4322.7527      7871.1198      459.07476      4638.0637    
      1700   8.5000027             64   252.61698     -420.28271      8.5000027      8.5000027      8.5000027      6177.8129      8772.6913      2115.8445      7644.9027    
      1800   8.5000035             64   327.66846     -420.69223      8.5000035      8.5000035      8.5000035      6137.2865      10661.136      1824.9387      5925.7847    
      1900   8.5000043             64   307.90772     -420.6213       8.5000043      8.5000043      8.5000043      5606.6969      7487.2538      3523.2624      5809.5744    
      2000   8.5000052             64   298.05247     -421.06455      8.5000052      8.5000052      8.5000052      1799.2948      620.2798       313.15293      4464.4518    
      2100   8.5000062             64   323.88064     -421.48618      8.5000062      8.5000062      8.5000062     -855.10503      4132.6579     -2801.9812     -3895.9918    
      2200   8.5000072             64   266.69337     -420.82361      8.5000072      8.5000072      8.5000072      3180.2446      4328.1691      5304.6867     -92.121902    
      2300   8.5000083             64   277.83617     -420.28359      8.5000083      8.5000083      8.5000083      6189.3153      7540.2908      4225.5343      6802.1209    
      2400   8.5000094             64   342.63422     -420.72139      8.5000094      8.5000094      8.5000094      4198.1035      3348.2844      3487.31        5758.716     
      2500   8.5000106             64   272.82423     -420.41615      8.5000106      8.5000106      8.5000106      5458.55        6490.7301      2523.0917      7361.8283    
      2600   8.500012              64   308.692       -421.04462      8.500012       8.500012       8.500012       1909.321       1708.2006      1545.9961      2473.7662    
      2700   8.5000133             64   306.5419      -421.21532      8.5000133      8.5000133      8.5000133      1169.7599      1555.0047      822.87403      1131.4011    
      2800   8.5000148             64   293.44004     -421.01445      8.5000148      8.5000148      8.5000148      2060.6262      1065.9526     -687.91891      5803.8451    
      2900   8.5000162             64   302.56121     -420.39897      8.5000162      8.5000162      8.5000162      6934.6811      9673.8851      5947.6576      5182.5007    
      3000   8.5000178             64   308.18693     -420.34881      8.5000178      8.5000178      8.5000178      7036.997       7178.9902      4274.5208      9657.4801    
      3100   8.5000194             64   261.19359     -420.44748      8.5000194      8.5000194      8.5000194      6052.7061      9644.8298      2087.5002      6425.7884    
      3200   8.5000212             64   272.13048     -420.84164      8.5000212      8.5000212      8.5000212      3399.3643      3730.9023      1763.9635      4703.2273    
      3300   8.500023              64   341.09442     -421.38575      8.500023       8.500023       8.500023       408.06854      990.54617     -1719.4842      1953.1436    
      3400   8.5000248             64   294.07863     -420.85398      8.5000248      8.5000248      8.5000248      1985.1254     -484.21548      1205.7316      5233.86      
      3500   8.5000267             64   330.61816     -420.8185       8.5000267      8.5000267      8.5000267      3413.4767      3779.089      -306.10523      6767.4464    
      3600   8.5000287             64   415.56301     -420.7383       8.5000287      8.5000287      8.5000287      5233.6339      6891.0196      5964.7038      2845.1783    
      3700   8.5000308             64   333.18687     -420.31924      8.5000308      8.5000308      8.5000308      7990.1345      9991.973       4332.2653      9646.1653    
      3800   8.500033              64   292.29216     -420.4892       8.500033       8.500033       8.500033       5327.4472      7402.7957      3335.3673      5244.1787    
      3900   8.5000354             64   304.32445     -420.87396      8.5000354      8.5000354      8.5000354      3591.3788      4462.1303      2251.6637      4060.3423    
      4000   8.5000378             64   263.02946     -420.76294      8.5000378      8.5000378      8.5000378      3706.3726      8498.3982      200.58186      2420.1378    
      4100   8.5000402             64   280.54501     -420.98695      8.5000402      8.5000402      8.5000402      2260.2518      5994.7891     -898.77214      1684.7384    
      4200   8.5000427             64   272.07648     -420.64767      8.5000427      8.5000427      8.5000427      3735.4916      5848.5235      941.6912       4416.26      
      4300   8.5000452             64   305.96278     -420.39649      8.5000452      8.5000452      8.5000452      6555.3962      9739.9284      3560.2709      6365.9893    
      4400   8.5000479             64   328.49614     -420.61222      8.5000479      8.5000479      8.5000479      5389.4055      6827.9148      2636.3908      6703.9109    
      4500   8.5000506             64   313.01258     -421.03309      8.5000506      8.5000506      8.5000506      2432.5665      2195.3872      1706.2746      3396.0378    
      4600   8.5000534             64   317.78229     -421.28093      8.5000534      8.5000534      8.5000534      268.03506     -1309.1515     -1185.8677      3299.1245    
      4700   8.5000562             64   257.10551     -420.69172      8.5000562      8.5000562      8.5000562      4252.4592      6547.6261      198.49107      6011.2604    
      4800   8.5000591             64   313.90818     -420.9233       8.5000591      8.5000591      8.5000591      2492.944       3983.5722      796.67382      2698.5861    
      4900   8.5000621             64   346.30482     -420.86952      8.5000621      8.5000621      8.5000621      2825.0959      5049.2592      119.74944      3306.2792    
      5000   8.5000651             64   356.44263     -420.42934      8.5000651      8.5000651      8.5000651      6655.1793      13684.815     -1305.6454      7586.3681    
      5100   8.5000683             64   349.863       -420.32998      8.5000683      8.5000683      8.5000683      7708.4105      11769.494      4904.4745      6451.2628    
      5200   8.5000716             64   291.8903      -420.65948      8.5000716      8.5000716      8.5000716      4048.0593      4525.6521      3222.4949      4396.0308    
      5300   8.5000749             64   309.302       -421.06158      8.5000749      8.5000749      8.5000749      1579.4728     -1122.8364      2338.4017      3522.8531    
      5400   8.5000784             64   269.99766     -420.81758      8.5000784      8.5000784      8.5000784      3094.8013      5392.7071      2138.0187      1753.6781    
      5500   8.5000818             64   271.43698     -420.71211      8.5000818      8.5000818      8.5000818      3649.6151      5502.0284      1784.9775      3661.8395    
      5600   8.5000854             64   346.03271     -420.82819      8.5000854      8.5000854      8.5000854      3255.0488      6826.5708      318.79062      2619.7848    
      5700   8.500089              64   294.26414     -420.15225      8.500089       8.500089       8.500089       8239.5716      6966.5599      10859.296      6892.8593    
      5800   8.5000927             64   278.10547     -420.56064      8.5000927      8.5000927      8.5000927      4119.4828      760.0655       6915.6959      4682.6871    
      5900   8.5000965             64   302.65802     -421.19797      8.5000965      8.5000965      8.5000965      802.28562      1979.2751      494.63123     -67.049438    
      6000   8.5001003             64   293.97812     -421.03348      8.5001003      8.5001003      8.5001003      1552.6477     -2249.7681      4081.9046      2825.8065    
      6100   8.5001042             64   309.1114      -420.82979      8.5001042      8.5001042      8.5001042      3010.3971      4640.188       2644.7006      1746.3028    
      6200   8.5001081             64   308.27962     -420.50511      8.5001081      8.5001081      8.5001081      5405.0567      3925.9817      9972.6654      2316.5231    
      6300   8.5001122             64   338.10495     -420.76535      8.5001122      8.5001122      8.5001122      3741.7232      6036.7579      2349.5275      2838.8843    
      6400   8.5001163             64   264.61932     -420.88431      8.5001163      8.5001163      8.5001163      1622.1759      1877.0184      178.66047      2810.849     
      6500   8.5001204             64   248.10229     -420.91281      8.5001204      8.5001204      8.5001204      1709.3876      931.44468      4661.1832     -464.46491    
      6600   8.5001246             64   289.81241     -420.95709      8.5001246      8.5001246      8.5001246      2129.496       2797.985       3705.8873     -115.38418    
      6700   8.5001288             64   298.41301     -420.5887       8.5001288      8.5001288      8.5001288      4297.8299      6093.4156      4491.8966      2308.1776    
      6800   8.5001331             64   349.10664     -420.9437       8.5001331      8.5001331      8.5001331      2976.0323      4690.5841      934.47178      3303.0409    
      6900   8.5001374             64   332.61492     -420.98315      8.5001374      8.5001374      8.5001374      2310.423       2402.6111      2692.8889      1835.7688    
      7000   8.5001419             64   299.07668     -420.83735      8.5001419      8.5001419      8.5001419      2741.1151      2174.4721      5533.2294      515.64375    
      7100   8.5001464             64   320.69357     -421.0532       8.5001464      8.5001464      8.5001464      1641.9208      3106.6013      2343.9998     -524.83875    
      7200   8.5001509             64   272.73059     -420.66701      8.5001509      8.5001509      8.5001509      4095.5997      4221.0414      4898.6539      3167.1038    
      7300   8.5001555             64   299.25248     -420.8194       8.5001555      8.5001555      8.5001555      3698.5054      4966.1824      4037.8273      2091.5066    
      7400   8.5001601             64   357.45175     -420.91398      8.5001601      8.5001601      8.5001601      3963.3451      5878.4629      5650.7368      360.83564    
      7500   8.5001649             64   320.8102      -420.38942      8.5001649      8.5001649      8.5001649      6195.9949      5836.2725      11146.642      1605.0703    
      7600   8.5001697             64   301.27815     -420.654        8.5001697      8.5001697      8.5001697      3635.3007      6636.536       2607.7893      1661.5767    
      7700   8.5001746             64   263.4536      -420.78648      8.5001746      8.5001746      8.5001746      2396.4596      3690.0299      4699.6561     -1200.3071    
      7800   8.5001795             64   261.0178      -420.79264      8.5001795      8.5001795      8.5001795      2492.8479      2103.202       5752.7364     -377.39484    
      7900   8.5001845             64   302.34301     -420.90165      8.5001845      8.5001845      8.5001845      2673.631       5791.204       5232.9629     -3003.2741    
      8000   8.5001895             64   304.23501     -420.33249      8.5001895      8.5001895      8.5001895      5872.2112      5011.9296      9004.6416      3600.0622    
      8100   8.5001946             64   337.64124     -420.16686      8.5001946      8.5001946      8.5001946      6532.8621      6150.9525      6464.028       6983.6057    
      8200   8.5001999             64   380.94639     -421.00902      8.5001999      8.5001999      8.5001999      2370.8989      1553.4518      4272.6395      1286.6052    
      8300   8.5002052             64   285.37069     -420.50222      8.5002052      8.5002052      8.5002052      3995.427       2104.0062      6243.3862      3638.8886    
      8400   8.5002106             64   288.37613     -420.79311      8.5002106      8.5002106      8.5002106      2709.2101      902.41987      5364.6837      1860.5268    
      8500   8.5002161             64   309.42694     -421.19808      8.5002161      8.5002161      8.5002161      56.009869     -376.17593      829.3681      -285.16256    
      8600   8.5002216             64   285.32787     -421.03045      8.5002216      8.5002216      8.5002216      1014.0564      539.18735      2753.0377     -250.05578    
      8700   8.5002271             64   275.72923     -420.57107      8.5002271      8.5002271      8.5002271      4044.7222      2886.544       4384.4437      4863.1788    
      8800   8.5002327             64   340.34044     -420.64814      8.5002327      8.5002327      8.5002327      4884.2997      7392.1793      5471.4855      1789.2342    
      8900   8.5002384             64   323.12277     -420.63214      8.5002384      8.5002384      8.5002384      4729.8455      1497.082       7923.152       4769.3024    
      9000   8.5002442             64   242.35002     -420.42863      8.5002442      8.5002442      8.5002442      5027.3298      2215.4706      9962.6746      2903.8443    
      9100   8.50025               64   310.74034     -421.08355      8.50025        8.50025        8.50025        1778.0581     -367.64916      4561.6209      1140.2025    
      9200   8.5002558             64   299.46127     -420.91873      8.5002558      8.5002558      8.5002558      2716.8096      1494.8988      5757.052       898.47785    
      9300   8.5002617             64   288.82252     -420.65989      8.5002617      8.5002617      8.5002617      4034.1976      4800.8038      5849.9388      1451.8502    
      9400   8.5002677             64   344.52352     -420.87684      8.5002677      8.5002677      8.5002677      3183.5648      4612.2053      3554.4083      1384.0808    
      9500   8.5002738             64   310.46374     -420.45266      8.5002738      8.5002738      8.5002738      4986.9589      5673.7639      9557.1238     -270.01105    
      9600   8.5002799             64   278.44138     -420.56364      8.5002799      8.5002799      8.5002799      4180.4644      6164.1933      3333.0723      3044.1276    
      9700   8.5002861             64   299.79757     -421.20309      8.5002861      8.5002861      8.5002861     -374.92116     -1087.2159      2072.6486     -2110.1962    
      9800   8.5002924             64   302.39644     -421.25127      8.5002924      8.5002924      8.5002924      295.59479     -30.871363      1889.1311     -971.47532    
      9900   8.5002986             64   297.14172     -420.83141      8.5002986      8.5002986      8.5002986      2849.3976      745.27355      5136.7154      2666.2038    
     10000   8.500305              64   338.37672     -420.64785      8.500305       8.500305       8.500305       5656.7087      6167.601       10383.908      418.61726    
     10100   8.5003114             64   318.29742     -420.5692       8.5003114      8.5003114      8.5003114      5706.3544      5321.5167      8773.8185      3023.728     
     10200   8.5003179             64   269.51856     -420.46514      8.5003179      8.5003179      8.5003179      5858.2849      5055.8326      7832.6554      4686.3668    
     10300   8.5003245             64   282.20748     -420.86717      8.5003245      8.5003245      8.5003245      3037.1519      1437.7413      8732.1153     -1058.4009    
     10400   8.5003311             64   296.70566     -421.13715      8.5003311      8.5003311      8.5003311      572.49547      3177.0101      722.9825      -2182.5062    
     10500   8.5003377             64   278.36755     -420.88405      8.5003377      8.5003377      8.5003377      2049.4153      4451.4749      3690.084      -1993.313     
     10600   8.5003444             64   362.35615     -420.95919      8.5003444      8.5003444      8.5003444      3037.6735      3300.9645      5510.2654      301.79052    
     10700   8.5003512             64   304.91074     -420.35085      8.5003512      8.5003512      8.5003512      6313.6495      8391.0172      9403.7515      1146.1797    
     10800   8.5003581             64   278.90977     -420.59492      8.5003581      8.5003581      8.5003581      5194.7308      11487.137      4143.3466     -46.291108    
     10900   8.500365              64   259.48567     -420.80578      8.500365       8.500365       8.500365       2258.835       1966.2646      7401.9368     -2591.6963    
     11000   8.500372              64   291.16694     -421.03317      8.500372       8.500372       8.500372       1957.4718      3234.5379      1124.4422      1513.4354    
     11100   8.500379              64   297.06129     -420.90239      8.500379       8.500379       8.500379       2244.4631      243.22012      5001.9541      1488.215     
     11200   8.5003861             64   320.02137     -420.88725      8.5003861      8.5003861      8.5003861      3452.8191      7549.7962      2810.1911     -1.5301044    
     11300   8.5003932             64   372.19709     -421.08682      8.5003932      8.5003932      8.5003932      2450.5202      611.38051      4651.0087      2089.1714    
     11400   8.5004004             64   306.4771      -420.0422       8.5004004      8.5004004      8.5004004      9641.7343      12417.796      8815.9205      7691.4862    
     11500   8.5004078             64   300.70516     -420.24449      8.5004078      8.5004078      8.5004078      6855.8643      13680.43      -389.84259      7277.0057    
     11600   8.5004152             64   312.93488     -420.95408      8.5004152      8.5004152      8.5004152      2474.4379      3743.5888      4792.3142     -1112.5891    
     11700   8.5004227             64   285.16907     -420.94601      8.5004227      8.5004227      8.5004227      2009.6754      3483.4936      341.82545      2203.7072    
     11800   8.5004303             64   293.45885     -420.9993       8.5004303      8.5004303      8.5004303      1813.6534      4990.2722      3251.659      -2800.9712    
     11900   8.5004378             64   344.34117     -421.04584      8.5004378      8.5004378      8.5004378      1298.7877      5610.8059      1366.9881     -3081.4307    
     12000   8.5004455             64   326.64839     -420.37202      8.5004455      8.5004455      8.5004455      6755.1047      7294.7804      10555.539      2414.9946    
     12100   8.5004532             64   287.49171     -420.2585       8.5004532      8.5004532      8.5004532      6663.9303      6204.6657      12112.672      1674.4529    
     12200   8.5004611             64   289.09082     -420.72496      8.5004611      8.5004611      8.5004611      3929.3048      1073.8049      3962.7082      6751.4012    
     12300   8.500469              64   274.36293     -420.70789      8.500469       8.500469       8.500469       2714.866       2918.2719      4789.4517      436.87432    
     12400   8.500477              64   320.32739     -421.09013      8.500477       8.500477       8.500477       1666.1838      3513.5386      502.15522      982.85757    
     12500   8.500485              64   333.03919     -421.14314      8.500485       8.500485       8.500485       1044.5051     -122.5068       2071.0436      1184.9785    
     12600   8.5004931             64   316.69637     -420.81355      8.5004931      8.5004931      8.5004931      3793.7545      3250.7784      4273.5136      3856.9714    
     12700   8.5005012             64   330.96857     -420.65326      8.5005012      8.5005012      8.5005012      4472.5531      7023.2344      2840.8984      3553.5264    
     12800   8.5005094             64   315.75555     -420.6108       8.5005094      8.5005094      8.5005094      5235.494       6857.2253      9570.876      -721.61935    
     12900   8.5005177             64   284.71416     -420.95371      8.5005177      8.5005177      8.5005177      2051.653       4346.6439      2101.3653     -293.05019    
     13000   8.500526              64   294.37496     -421.21719      8.500526       8.500526       8.500526       240.62851      928.57333      20.706989     -227.39479    
     13100   8.5005344             64   293.81        -421.03426      8.5005344      8.5005344      8.5005344      917.08555      261.01601      178.45551      2311.7851    
     13200   8.5005428             64   307.93209     -420.77041      8.5005428      8.5005428      8.5005428      3486.4697      2979.2797      4229.539       3250.5905    
     13300   8.5005513             64   333.83859     -420.77094      8.5005513      8.5005513      8.5005513      3178.2046      3462.0267      3635.1065      2437.4805    
     13400   8.5005598             64   328.90726     -420.93548      8.5005598      8.5005598      8.5005598      2725.7885      2620.7166      3426.653       2129.9958    
     13500   8.5005684             64   247.81381     -421.17626      8.5005684      8.5005684      8.5005684      15.938154      217.68282     -812.78279      642.91443    
     13600   8.5005771             64   269.81039     -421.19526      8.5005771      8.5005771      8.5005771      545.46357      551.28471     -1017.6543      2102.7603    
     13700   8.5005857             64   297.09027     -420.87011      8.5005857      8.5005857      8.5005857      1998.447       3658.3742      4755.328      -2418.3614    
     13800   8.5005943             64   330.7187      -420.80182      8.5005943      8.5005943      8.5005943      3866.6389      8355.9874      2286.4457      957.48362    
     13900   8.500603              64   342.25394     -420.87454      8.500603       8.500603       8.500603       2767.6872      4623.0753      1827.0472      1852.9391    
     14000   8.5006118             64   324.91104     -421.16107      8.5006118      8.5006118      8.5006118      794.8093       2409.4951      1637.4311     -1662.4984    
     14100   8.5006207             64   277.17741     -421.15837      8.5006207      8.5006207      8.5006207     -305.50963      2886.8224     -2340.4494     -1462.9018    
     14200   8.5006295             64   275.53818     -421.06208      8.5006295      8.5006295      8.5006295      868.67582      986.1429       4338.3648     -2718.4802    
     14300   8.5006384             64   306.21282     -421.06327      8.5006384      8.5006384      8.5006384      1316.6984      2155.5469     -1306.4883      3101.0367    
     14400   8.5006473             64   294.32901     -420.85802      8.5006473      8.5006473      8.5006473      1988.4433      1102.8242     -733.84627      5596.352     
     14500   8.5006563             64   308.1964      -420.88504      8.5006563      8.5006563      8.5006563      1763.5524      132.65045      5789.2485     -631.24185    
     14600   8.5006653             64   309.30628     -420.80758      8.5006653      8.5006653      8.5006653      3051.9457      2180.6101      4957.2921      2017.9348    
     14700   8.5006744             64   316.28153     -420.76753      8.5006744      8.5006744      8.5006744      2996.8757      23.440515      5284.2464      3682.9401    
     14800   8.5006835             64   304.6115      -420.72789      8.5006835      8.5006835      8.5006835      3665.6153      5366.7077      6498.5119     -868.37352    
     14900   8.5006927             64   286.65508     -420.88602      8.5006927      8.5006927      8.5006927      1803.9419      2335.8517      6112.2583     -3036.2844    
     15000   8.5007019             64   301.5288      -421.28808      8.5007019      8.5007019      8.5007019     -31.783293     -1234.468       1895.6293     -756.51114    
     15100   8.5007112             64   283.96544     -421.12783      8.5007112      8.5007112      8.5007112      12.483494     -495.21811      1762.2182     -1229.5496    
     15200   8.5007204             64   329.44384     -420.83397      8.5007204      8.5007204      8.5007204      2858.2002      6116.7751      1473.8821      983.94338    
     15300   8.5007297             64   331.6214      -420.64182      8.5007297      8.5007297      8.5007297      3564.8069     -33.834667      2811.5695      7916.6857    
     15400   8.5007391             64   315.63105     -420.77445      8.5007391      8.5007391      8.5007391      2863.0504      2633.029       5750.3474      205.77498    
     15500   8.5007486             64   285.54593     -420.93275      8.5007486      8.5007486      8.5007486      1000.7231      1996.9349     -833.80577      1839.0403    
     15600   8.5007581             64   254.14002     -420.77876      8.5007581      8.5007581      8.5007581      2218.3631     -545.5221       3999.8912      3200.7204    
     15700   8.5007676             64   312.33801     -421.16187      8.5007676      8.5007676      8.5007676      642.19499      1408.0213      4302.8534     -3784.2898    
     15800   8.5007771             64   300.23484     -420.93912      8.5007771      8.5007771      8.5007771      2243.8007     -470.88436      5907.1063      1295.1802    
     15900   8.5007867             64   314.25612     -420.87253      8.5007867      8.5007867      8.5007867      2203.285       2641.9616      2092.6941      1875.1992    
     16000   8.5007963             64   332.09185     -420.79376      8.5007963      8.5007963      8.5007963      3505.0032      746.56691      7016.7914      2751.6511    
     16100   8.500806              64   335.8953      -420.52117      8.500806       8.500806       8.500806       5842.8399      2667.8117      10496.225      4364.483     
     16200   8.5008158             64   359.42739     -420.84307      8.5008158      8.5008158      8.5008158      2751.2112      4506.215       3460.9991      286.41967    
     16300   8.5008257             64   292.87371     -420.91519      8.5008257      8.5008257      8.5008257      1141.8436     -1475.8917      8775.9636     -3874.5412    
     16400   8.5008356             64   290.45731     -421.08214      8.5008356      8.5008356      8.5008356      619.99846     -67.17342       1276.8654      650.30339    
     16500   8.5008455             64   304.94728     -421.07064      8.5008455      8.5008455      8.5008455      741.57474     -3336.6736      3913.7738      1647.624     
     16600   8.5008555             64   321.32278     -420.68285      8.5008555      8.5008555      8.5008555      3272.7274      4122.8854      5476.9052      218.39159    
     16700   8.5008655             64   352.28302     -420.56393      8.5008655      8.5008655      8.5008655      4377.9695      1139.55        5891.3744      6102.984     
     16800   8.5008756             64   346.21758     -420.77498      8.5008756      8.5008756      8.5008756      3569.6306      2919.2975      6345.5226      1444.0715    
     16900   8.5008858             64   284.14357     -420.51319      8.5008858      8.5008858      8.5008858      3931.3768      5152.1008      5090.5331      1551.4966    
     17000   8.5008961             64   289.1185      -420.82257      8.5008961      8.5008961      8.5008961      1983.0673      2004.1541      4885.8046     -940.75694    
     17100   8.5009064             64   309.0067      -421.21345      8.5009064      8.5009064      8.5009064      129.857       -259.7131       4621.8594     -3972.5753    
     17200   8.5009168             64   278.55189     -421.03331      8.5009168      8.5009168      8.5009168      866.98616     -3613.2962      6991.0378     -776.78311    
     17300   8.5009271             64   310.63222     -420.90414      8.5009271      8.5009271      8.5009271      1722.2877      3055.949       879.80969      1231.1043    
     17400   8.5009375             64   323.58444     -420.55555      8.5009375      8.5009375      8.5009375      5103.3685      1248.0326      12124.946      1937.1265    
     17500   8.500948              64   327.35699     -420.69174      8.500948       8.500948       8.500948       4823.1316      3832.1157      6637.1839      4000.0953    
     17600   8.5009585             64   335.55138     -421.30677      8.5009585      8.5009585      8.5009585      91.160196      2522.8341     -133.88298     -2115.4705    
     17700   8.5009691             64   254.14935     -420.82353      8.5009691      8.5009691      8.5009691      560.08075      4062.1801     -2802.5167      420.57883    
     17800   8.5009797             64   301.23456     -421.08449      8.5009797      8.5009797      8.5009797     -130.51921     -947.60212     -39.927853      595.97234    
     17900   8.5009903             64   310.27041     -420.9359       8.5009903      8.5009903      8.5009903      1859.7171     -259.37019      6053.1361     -214.61472    
     18000   8.5010009             64   309.29983     -420.69999      8.5010009      8.5010009      8.5010009      3514.527       5123.5709      3981.9425      1438.0675    
     18100   8.5010116             64   328.24989     -420.51185      8.5010116      8.5010116      8.5010116      4405.8066      7178.21        5083.2814      955.92838    
     18200   8.5010225             64   331.91715     -420.22619      8.5010225      8.5010225      8.5010225      7094.4854      4353.7568      12858.33       4071.3692    
     18300   8.5010334             64   305.7376      -420.58081      8.5010334      8.5010334      8.5010334      4177.6372      4358.0651      7324.7098      850.13658    
     18400   8.5010444             64   286.55182     -420.86148      8.5010444      8.5010444      8.5010444      2041.09        3563.19        1841.1727      718.90716    
     18500   8.5010554             64   290.54167     -421.00117      8.5010554      8.5010554      8.5010554      1195.8483      1031.7462      3820.1989     -1264.4003    
     18600   8.5010664             64   309.45864     -421.04555      8.5010664      8.5010664      8.5010664      935.58518     -1726.3809      5002.6466     -469.5101     
     18700   8.5010775             64   340.90335     -420.77021      8.5010775      8.5010775      8.5010775      2738.1201      609.60679      4377.858       3226.8956    
     18800   8.5010887             64   306.65412     -420.19245      8.5010887      8.5010887      8.5010887      6570.2594      7950.6284      10595.151      1164.9985    
     18900   8.5010999             64   307.41872     -420.66871      8.5010999      8.5010999      8.5010999      3820.5337      4650.8161      5524.9866      1285.7984    
     19000   8.5011112             64   278.18121     -420.8138       8.5011112      8.5011112      8.5011112      2563.9648      2760.9335      4714.2891      216.67183    
     19100   8.5011226             64   321.26113     -421.15364      8.5011226      8.5011226      8.5011226      163.33265      202.59976      4053.4809     -3766.0828    
     19200   8.501134              64   331.87575     -421.09762      8.501134       8.501134       8.501134       371.33987     -2014.0806      3533.7586     -405.65842    
     19300   8.5011454             64   319.18813     -420.74016      8.5011454      8.5011454      8.5011454      2792.3968      2949.4689      5569.6781     -141.95667    
     19400   8.5011569             64   321.10071     -420.49553      8.5011569      8.5011569      8.5011569      5701.9519      2948.8906      11313.506      2843.4586    
     19500   8.5011684             64   334.66842     -420.75223      8.5011684      8.5011684      8.5011684      3746.7331      3658.021       7031.3234      550.8548     
     19600   8.50118               64   286.44318     -420.97778      8.50118        8.50118        8.50118        780.74616      746.17247      774.73695      821.32906    
     19700   8.5011917             64   257.25883     -420.8889       8.5011917      8.5011917      8.5011917      445.59795     -1368.2797      5342.403      -2637.3295    
     19800   8.5012034             64   308.83252     -421.0889       8.5012034      8.5012034      8.5012034      824.93692     -1306.6999      4219.0771     -437.56646    
     19900   8.5012151             64   361.75267     -420.98436      8.5012151      8.5012151      8.5012151      1718.9402      1058.2558      3739.9722      358.59274    
     20000   8.5012268             64   343.28787     -420.66115      8.5012268      8.5012268      8.5012268      4532.6769      6908.2874      6327.3039      362.43934    
     20100   8.5012386             64   338.71124     -420.82833      8.5012386      8.5012386      8.5012386      2417.801       5150.3346      1993.4863      109.58216    
     20200   8.5012505             64   307.46666     -420.81531      8.5012505      8.5012505      8.5012505      2436.6744      5310.2288      2475.8885     -476.09417    
     20300   8.5012625             64   253.16741     -420.65284      8.5012625      8.5012625      8.5012625      2465.9064      2150.8599      6008.2089     -761.34961    
     20400   8.5012745             64   278.73906     -421.03267      8.5012745      8.5012745      8.5012745      1233.7217      757.27954      2032.0841      911.80137    
     20500   8.5012865             64   262.75847     -420.81541      8.5012865      8.5012865      8.5012865      1201.6836      1316.0695      2773.9368     -484.95543    
     20600   8.5012985             64   342.42895     -420.87963      8.5012985      8.5012985      8.5012985      2113.2665      2427.7886      3641.2891      270.72166    
     20700   8.5013105             64   361.98321     -420.84014      8.5013105      8.5013105      8.5013105      2578.1641      1553.5837      4337.9659      1842.9427    
     20800   8.5013227             64   257.48778     -420.3618       8.5013227      8.5013227      8.5013227      5538.2778      3656.0892      9417.2421      3541.5019    
     20900   8.5013348             64   286.5898      -421.05579      8.5013348      8.5013348      8.5013348      1.6574552     -772.90101      3032.7171     -2254.8438    
     21000   8.501347              64   270.72317     -420.92257      8.501347       8.501347       8.501347       459.26885     -298.43379      2446.883      -770.64267    
     21100   8.5013593             64   268.28278     -420.72721      8.5013593      8.5013593      8.5013593      1649.0431      3785.4253     -2339.0672      3500.7712    
     21200   8.5013715             64   320.68578     -420.9276       8.5013715      8.5013715      8.5013715      1840.4565      2808.8223      3173.2085     -460.66145    
     21300   8.5013838             64   350.20177     -420.92983      8.5013838      8.5013838      8.5013838      1854.0817      6262.1688     -1539.9151      839.99146    
     21400   8.5013961             64   346.80822     -420.40655      8.5013961      8.5013961      8.5013961      5895.871       10010.16       4500.7714      3176.6818    
     21500   8.5014086             64   346.47311     -420.48223      8.5014086      8.5014086      8.5014086      5096.119       13092.107      915.87208      1280.3775    
     21600   8.5014211             64   315.72394     -420.91567      8.5014211      8.5014211      8.5014211      1469.5009      2183.7679      954.57595      1270.1587    
     21700   8.5014337             64   273.13735     -420.81018      8.5014337      8.5014337      8.5014337      948.42017      1738.7429      2150.2143     -1043.6967    
     21800   8.5014463             64   274.40986     -420.84918      8.5014463      8.5014463      8.5014463      2140.1041      871.68913      2264.8838      3283.7394    
     21900   8.5014589             64   310.59187     -420.90108      8.5014589      8.5014589      8.5014589      1968.5611      3078.1481      2388.5331      439.00209    
     22000   8.5014716             64   323.5285      -420.42599      8.5014716      8.5014716      8.5014716      5530.7143      5369.997       6769.1866      4452.9594    
     22100   8.5014844             64   333.31304     -420.49731      8.5014844      8.5014844      8.5014844      5388.0128      1526.6743      9698.4258      4938.9382    
     22200   8.5014972             64   299.85326     -420.89146      8.5014972      8.5014972      8.5014972      2211.5615      6859.9037      1214.4325     -1439.6518    
     22300   8.5015101             64   290.13005     -420.96454      8.5015101      8.5015101      8.5015101      853.5328       2419.8413     -160.228        300.98509    
     22400   8.501523              64   290.50391     -420.88419      8.501523       8.501523       8.501523       622.69984      2383.2184      1353.9        -1869.0188    
     22500   8.5015359             64   279.64796     -420.56462      8.5015359      8.5015359      8.5015359      2170.6861      3332.6644      2620.1515      559.24236    
     22600   8.5015489             64   340.52013     -420.72714      8.5015489      8.5015489      8.5015489      3020.2784      5137.1189      483.9363       3439.7799    
     22700   8.5015619             64   312.10935     -420.35614      8.5015619      8.5015619      8.5015619      5583.8231      6365.982       4129.1322      6256.3552    
     22800   8.5015751             64   281.25684     -420.67516      8.5015751      8.5015751      8.5015751      2406.2533      3869.1634      3120.163       229.43341    
     22900   8.5015882             64   265.95463     -420.93505      8.5015882      8.5015882      8.5015882      803.37835     -42.704088      1837.6355      615.20363    
     23000   8.5016014             64   269.85822     -420.91274      8.5016014      8.5016014      8.5016014      1269.1322     -1287.4776      2676.3944      2418.4797    
     23100   8.5016145             64   286.28443     -420.6243       8.5016145      8.5016145      8.5016145      2786.2058      2854.6477      4458.4144      1045.5553    
     23200   8.5016278             64   309.45747     -420.4169       8.5016278      8.5016278      8.5016278      4697.2297      1188.0326      7474.0379      5429.6187    
     23300   8.501641              64   321.64578     -420.66069      8.501641       8.501641       8.501641       3583.952       6185.3511      4108.0961      458.4087     
     23400   8.5016544             64   293.65888     -420.66421      8.5016544      8.5016544      8.5016544      2967.7866      3097.9102     -633.48182      6438.9314    
     23500   8.5016678             64   306.79241     -420.88449      8.5016678      8.5016678      8.5016678      1035.0732      1301.9236      1062.1267      741.16913    
     23600   8.5016812             64   282.43755     -420.84642      8.5016812      8.5016812      8.5016812      1633.6901      5857.6632     -2284.7983      1328.2055    
     23700   8.5016946             64   279.94073     -420.95486      8.5016946      8.5016946      8.5016946      1182.3179      3068.3546     -1242.7783      1721.3775    
     23800   8.5017081             64   296.31446     -421.05292      8.5017081      8.5017081      8.5017081      426.58005      860.99356     -684.5272       1103.2738    
     23900   8.5017216             64   288.89807     -420.57844      8.5017216      8.5017216      8.5017216      3214.024       4135.81        101.93941      5404.3226    
     24000   8.5017351             64   333.22147     -420.58547      8.5017351      8.5017351      8.5017351      4020.9275      7610.9269      2054.9336      2396.9219    
     24100   8.5017487             64   350.84343     -420.97954      8.5017487      8.5017487      8.5017487      1882.255       3102.5689      4274.197      -1730.0008    
     24200   8.5017623             64   265.6131      -420.92627      8.5017623      8.5017623      8.5017623      1268.5257      4346.5761      1613.1494     -2154.1483    
     24300   8.5017759             64   280.52829     -421.06037      8.5017759      8.5017759      8.5017759     -861.44873      1401.1146     -2652.5873     -1332.8735    
     24400   8.5017896             64   296.51317     -420.9435       8.5017896      8.5017896      8.5017896      686.48024      414.37812      3435.7783     -1790.7157    
     24500   8.5018033             64   297.13061     -420.6166       8.5018033      8.5018033      8.5018033      3809.2681      6428.6829      3768.5913      1230.53      
     24600   8.501817              64   355.20113     -420.91426      8.501817       8.501817       8.501817       1804.9193      2027.527       1956.7302      1430.5006    
     24700   8.5018307             64   330.882       -421.07958      8.5018307      8.5018307      8.5018307      69.911939      4194.4633     -1329.1191     -2655.6084    
     24800   8.5018445             64   292.42491     -421.28197      8.5018445      8.5018445      8.5018445     -2586.0193      947.09009     -4129.1059     -4576.042     
     24900   8.5018583             64   253.05619     -420.91905      8.5018583      8.5018583      8.5018583     -250.06763     -911.9821      -812.38299      974.16221    
     25000   8.5018721             64   342.07807     -421.16884      8.5018721      8.5018721      8.5018721     -542.477       -674.34457     -1459.3301      506.24363    
     25100   8.5018859             64   325.66006     -420.75487      8.5018859      8.5018859      8.5018859      1838.2464      92.185484      1258.2199      4164.3337    
     25200   8.5018997             64   326.27631     -420.84973      8.5018997      8.5018997      8.5018997      1137.1257      698.6016       2335.6023      377.173      
     25300   8.5019136             64   309.49133     -420.93783      8.5019136      8.5019136      8.5019136      256.50103     -21.868816      1729.9672     -938.59527    
     25400   8.5019275             64   294.19009     -421.02682      8.5019275      8.5019275      8.5019275     -338.00386      1240.6122      2740.1201     -4994.7439    
     25500   8.5019414             64   250.20801     -421.20578      8.5019414      8.5019414      8.5019414     -1891.7913      1972.5389     -3777.4816     -3870.4312    
     25600   8.5019553             64   227.52351     -421.2022       8.5019553      8.5019553      8.5019553     -1786.1325      427.91921     -2342.4611     -3443.8556    
     25700   8.5019691             64   281.04741     -421.12782      8.5019691      8.5019691      8.5019691     -337.75053     -604.0801       2089.7955     -2498.967     
     25800   8.5019829             64   315.03602     -421.0277       8.5019829      8.5019829      8.5019829      291.89946     -549.2529      -615.28541      2040.2367    
     25900   8.5019967             64   299.27233     -420.67115      8.5019967      8.5019967      8.5019967      3006.038       1190.4177      1898.5097      5929.1865    
     26000   8.5020106             64   332.67459     -420.86176      8.5020106      8.5020106      8.5020106      1913.7033      384.69901      1362.54        3993.8709    
     26100   8.5020245             64   353.04659     -421.2845       8.5020245      8.5020245      8.5020245     -1306.4368      1046.9164     -1962.878      -3003.3489    
     26200   8.5020384             64   243.55897     -420.91001      8.5020384      8.5020384      8.5020384     -1400.8075      3631.3342     -4919.1394     -2914.6172    
     26300   8.5020523             64   261.70033     -421.06727      8.5020523      8.5020523      8.5020523     -983.50142     -1323.6706     -2873.3157      1246.4821    
     26400   8.5020662             64   313.08888     -420.99339      8.5020662      8.5020662      8.5020662     -161.72156      847.17271     -1980.1971      647.85975    
     26500   8.5020801             64   301.51781     -420.66097      8.5020801      8.5020801      8.5020801      2477.0045      2820.1145      3406.3806      1204.5183    
     26600   8.502094              64   273.4587      -420.50389      8.502094       8.502094       8.502094       2421.2489      2262.9605      2755.286       2245.5003    
     26700   8.502108              64   329.94799     -421.17402      8.502108       8.502108       8.502108      -873.09488     -772.35661     -3446.931       1600.003     
     26800   8.502122              64   273.37164     -421.03646      8.502122       8.502122       8.502122      -942.8872      -2769.0861      1126.8763     -1186.4518    
     26900   8.5021359             64   250.06296     -421.19151      8.5021359      8.5021359      8.5021359     -1630.9031     -1249.8078     -2623.331      -1019.5704    
     27000   8.5021498             64   218.34203     -420.8794       8.5021498      8.5021498      8.5021498      45.511798     -3656.4157      4542.7507     -749.79957    
     27100   8.5021637             64   299.45454     -420.86654      8.5021637      8.5021637      8.5021637      821.53569      1213.2076      411.83906      839.5604     
     27200   8.5021776             64   309.56433     -420.70835      8.5021776      8.5021776      8.5021776      1601.1321      547.97268      1612.1641      2643.2596    
     27300   8.5021915             64   288.83019     -420.55367      8.5021915      8.5021915      8.5021915      2809.331       2221.3583      1871.9304      4334.7042    
     27400   8.5022054             64   329.11887     -421.20953      8.5022054      8.5022054      8.5022054     -1292.5353     -2422.6952     -167.35429     -1287.5563    
     27500   8.5022194             64   280.35037     -421.24327      8.5022194      8.5022194      8.5022194     -2229.3165     -1673.5786     -1966.5688     -3047.802     
     27600   8.5022333             64   219.67256     -420.73634      8.5022333      8.5022333      8.5022333     -565.33257      3018.2018     -3649.3347     -1064.8648    
     27700   8.5022472             64   293.84784     -420.55292      8.5022472      8.5022472      8.5022472      2247.3454      1164.4543     -1143.2311      6720.8129    
     27800   8.5022611             64   296.0323      -420.4594       8.5022611      8.5022611      8.5022611      2449.2257      2971.2837      985.21525      3391.1783    
     27900   8.5022751             64   288.21491     -420.66811      8.5022751      8.5022751      8.5022751      1304.7358     -276.1671       422.97997      3767.3945    
     28000   8.502289              64   268.84556     -420.88466      8.502289       8.502289       8.502289      -681.46903     -2226.8112      2420.6992     -2238.2951    
     28100   8.502303              64   256.56023     -420.90686      8.502303       8.502303       8.502303      -645.42031     -1616.4446     -338.81366      18.997331    
     28200   8.5023169             64   325.07599     -421.00035      8.5023169      8.5023169      8.5023169     -784.30266      343.21004     -1633.8957     -1062.2224    
     28300   8.5023309             64   322.93933     -420.4666       8.5023309      8.5023309      8.5023309      3182.5565      3873.7556      3639.1318      2034.7821    
     28400   8.5023449             64   309.97107     -420.57425      8.5023449      8.5023449      8.5023449      2332.6487      3915.5159     -1512.2977      4594.728     
     28500   8.5023589             64   292.6592      -420.88414      8.5023589      8.5023589      8.5023589     -92.331384     -656.82286      2683.6316     -2303.8029    
     28600   8.5023729             64   296.02706     -421.07319      8.5023729      8.5023729      8.5023729     -1256.7648     -2613.3898      3251.5709     -4408.4754    
     28700   8.5023869             64   323.90102     -421.21309      8.5023869      8.5023869      8.5023869     -1089.1418     -3796.8334     -551.00153      1080.4095    
     28800   8.502401              64   289.58476     -420.7973       8.502401       8.502401       8.502401       1193.0501     -1363.9339      7113.6078     -2170.5236    
     28900   8.502415              64   312.06674     -420.93004      8.502415       8.502415       8.502415       950.30681     -4899.0185      963.3117       6786.6272    
     29000   8.502429              64   285.41434     -420.70817      8.502429       8.502429       8.502429       899.26709     -798.14894      2454.7148      1041.2355    
     29100   8.502443              64   297.54904     -420.82994      8.502443       8.502443       8.502443       220.74508     -1295.5587     -1015.603       2973.397     
     29200   8.5024571             64   306.12124     -421.02354      8.5024571      8.5024571      8.5024571     -725.65943     -3766.7646      1336.6665      253.11979    
     29300   8.5024711             64   255.63358     -420.87813      8.5024711      8.5024711      8.5024711     -135.9137      -1965.6569      2099.0685     -541.15271    
     29400   8.5024851             64   299.63243     -421.28112      8.5024851      8.5024851      8.5024851     -3107.421      -3107.526      -2878.1214     -3336.6156    
     29500   8.5024991             64   336.11806     -421.14184      8.5024991      8.5024991      8.5024991     -1317.132      -4152.5061      2059.4797     -1858.3696    
     29600   8.5025131             64   300.88345     -420.46739      8.5025131      8.5025131      8.5025131      1679.3243     -834.6524       1545.9968      4326.6284    
     29700   8.5025272             64   304.61205     -420.58871      8.5025272      8.5025272      8.5025272      2136.6748      922.56339      3208.8447      2278.6165    
     29800   8.5025412             64   320.27556     -421.02806      8.5025412      8.5025412      8.5025412     -871.59114     -3888.5051      280.69449      993.03725    
     29900   8.5025553             64   283.21277     -420.92787      8.5025553      8.5025553      8.5025553     -395.84873     -3048.73       -2411.8934      4273.0772    
     30000   8.5025693             64   272.71968     -420.8142       8.5025693      8.5025693      8.5025693     -11.297907     -3852.9967      3283.1077      535.99523    
     30100   8.5025833             64   298.6431      -420.9083       8.5025833      8.5025833      8.5025833     -723.43489     -4599.4174      4997.8768     -2568.764     
     30200   8.5025974             64   279.27741     -420.55387      8.5025974      8.5025974      8.5025974      1024.9225     -2457.406       6194.3988     -662.22524    
     30300   8.5026114             64   293.23595     -420.47368      8.5026114      8.5026114      8.5026114      2872.7826      749.52591      5734.3934      2134.4287    
     30400   8.5026255             64   324.39583     -420.70267      8.5026255      8.5026255      8.5026255      2390.7395      650.3838       5591.5507      930.28406    
     30500   8.5026396             64   245.63053     -420.51055      8.5026396      8.5026396      8.5026396      1688.3316      1117.3581      5589.2724     -1641.6358    
     30600   8.5026537             64   301.56928     -421.30391      8.5026537      8.5026537      8.5026537     -2845.3025     -3832.7763     -767.22666     -3935.9045    
     30700   8.5026678             64   314.84705     -421.30491      8.5026678      8.5026678      8.5026678     -2608.2142     -3204.7303     -28.251307     -4591.6609    
     30800   8.5026818             64   332.91012     -420.85173      8.5026818      8.5026818      8.5026818      239.24748     -2382.0746      146.84607      2952.971     
     30900   8.5026959             64   340.93141     -420.74137      8.5026959      8.5026959      8.5026959      914.73764     -1794.2855      5313.3248     -774.82636    
     31000   8.50271               64   299.85559     -420.61787      8.50271        8.50271        8.50271        1126.545       1412.4933      1521.8703      445.27127    
     31100   8.5027242             64   285.63043     -420.80444      8.5027242      8.5027242      8.5027242      182.75577     -1788.4425     -1824.7151      4161.4249    
     31200   8.5027383             64   256.56995     -420.77041      8.5027383      8.5027383      8.5027383      109.72118     -2689.8187      1975.3047      1043.6775    
     31300   8.5027524             64   311.02287     -421.23101      8.5027524      8.5027524      8.5027524     -2433.7105     -3170.4422     -4448.6123      317.92304    
     31400   8.5027665             64   293.80617     -420.65544      8.5027665      8.5027665      8.5027665      1025.9658     -1371.6714      5740.3682     -1290.7993    
     31500   8.5027806             64   296.31616     -420.31025      8.5027806      8.5027806      8.5027806      3073.1246      3286.1495      6685.9648     -752.74047    
     31600   8.5027947             64   339.64547     -420.8163       8.5027947      8.5027947      8.5027947      717.05839      4095.5533     -635.34447     -1309.0336    
     31700   8.5028089             64   261.49914     -420.72322      8.5028089      8.5028089      8.5028089      112.21759     -2721.1859      5852.3249     -2794.4862    
     31800   8.502823              64   284.63805     -421.07501      8.502823       8.502823       8.502823      -1830.7881     -4796.9401     -270.91388     -424.51029    
     31900   8.5028371             64   297.24955     -421.03018      8.5028371      8.5028371      8.5028371     -1299.0135     -2484.8266     -334.20032     -1078.0134    
     32000   8.5028512             64   309.5825      -420.93643      8.5028512      8.5028512      8.5028512     -619.24437      314.79937     -3420.2911      1247.7586    
     32100   8.5028653             64   289.98477     -420.69155      8.5028653      8.5028653      8.5028653      659.06802     -942.07839      3681.7112     -762.42878    
     32200   8.5028794             64   287.2182      -420.67865      8.5028794      8.5028794      8.5028794      517.58259     -4705.0913      3299.4326      2958.4065    
     32300   8.5028935             64   303.90933     -420.85109      8.5028935      8.5028935      8.5028935      134.83407     -2222.2972      1790.947       835.8524     
     32400   8.5029077             64   246.51714     -420.45102      8.5029077      8.5029077      8.5029077      2179.0672      1561.441       3890.5886      1085.1719    
     32500   8.5029218             64   307.86091     -421.18542      8.5029218      8.5029218      8.5029218     -1776.2245     -1107.7003      2416.3631     -6637.3363    
     32600   8.5029359             64   242.82299     -420.96269      8.5029359      8.5029359      8.5029359     -1649.9678     -3834.3903      5412.0925     -6527.6056    
     32700   8.5029499             64   256.56491     -420.92155      8.5029499      8.5029499      8.5029499     -1444.2775     -4017.9883      103.94686     -418.79115    
     32800   8.5029639             64   321.04486     -420.89795      8.5029639      8.5029639      8.5029639     -935.73109     -871.93103      1000.7379     -2936.0002    
     32900   8.5029779             64   280.78196     -420.41044      8.5029779      8.5029779      8.5029779      2514.1173     -3719.453       11077.557      184.24725    
     33000   8.502992              64   341.73024     -421.03771      8.502992       8.502992       8.502992      -1215.385      -1252.4711      3828.9693     -6222.6532    
     33100   8.503006              64   296.95328     -421.09343      8.503006       8.503006       8.503006      -2202.7988     -2807.4606      3854.8295     -7655.7651    
     33200   8.50302               64   268.32614     -421.36627      8.50302        8.50302        8.50302       -4430.9611     -5136.2165     -4524.4972     -3632.1696    
     33300   8.503034              64   241.56788     -421.05084      8.503034       8.503034       8.503034      -1619.2417     -2655.0683     -1485.669      -716.98784    
     33400   8.5030479             64   254.02276     -420.89714      8.5030479      8.5030479      8.5030479     -1008.5948     -1990.879       2636.279      -3671.1844    
     33500   8.5030617             64   279.94623     -420.79675      8.5030617      8.5030617      8.5030617      645.23136     -2307.4665      4727.0274     -483.86683    
     33600   8.5030756             64   303.14566     -420.63486      8.5030756      8.5030756      8.5030756      335.09872      727.83517      5493.4441     -5215.9831    
     33700   8.5030894             64   340.4755      -420.79586      8.5030894      8.5030894      8.5030894      990.55369     -2423.3683      185.5067       5209.5226    
     33800   8.5031033             64   306.94318     -420.86056      8.5031033      8.5031033      8.5031033     -529.37924     -2894.1895      2756.9473     -1450.8955    
     33900   8.5031172             64   256.67129     -421.01081      8.5031172      8.5031172      8.5031172     -1956.774      -1622.9449      320.73113     -4568.1083    
     34000   8.503131              64   249.20713     -420.87973      8.503131       8.503131       8.503131      -2433.9183     -1066.7896     -1850.2654     -4384.6999    
     34100   8.5031448             64   251.48813     -420.54792      8.5031448      8.5031448      8.5031448      328.58861      2394.104       166.95432     -1575.2925    
     34200   8.5031585             64   253.16416     -420.35724      8.5031585      8.5031585      8.5031585      76.201352     -1371.2453      2312.045      -712.19561    
     34300   8.5031723             64   309.39192     -420.81054      8.5031723      8.5031723      8.5031723     -1033.403      -6238.2813      3460.1563     -322.08405    
     34400   8.503186              64   288.6263      -420.72627      8.503186       8.503186       8.503186      -266.30601     -3870.4984      4045.526      -973.9456     
     34500   8.5031997             64   313.78882     -421.11064      8.5031997      8.5031997      8.5031997     -2509.2315     -6.8277591     -1626.7539     -5894.1129    
     34600   8.5032135             64   239.72095     -421.01011      8.5032135      8.5032135      8.5032135     -2683.7588     -5063.2444      3961.9846     -6950.0166    
     34700   8.5032271             64   235.21656     -421.04452      8.5032271      8.5032271      8.5032271     -1722.4926     -6435.7884      317.79667      950.51391    
     34800   8.5032407             64   304.58743     -421.06627      8.5032407      8.5032407      8.5032407     -898.98015      1972.4378     -1901.1524     -2768.2259    
     34900   8.5032543             64   299.87847     -420.7562       8.5032543      8.5032543      8.5032543      1033.355      -1065.1139      3865.6149      299.56397    
     35000   8.5032678             64   304.99062     -420.74852      8.5032678      8.5032678      8.5032678      516.77439      2082.2886      705.39069     -1237.3561    
     35100   8.5032814             64   335.45219     -421.08805      8.5032814      8.5032814      8.5032814     -1565.9313     -2384.9582     -1577.4365     -735.39929    
     35200   8.503295              64   271.10086     -420.97239      8.503295       8.503295       8.503295      -2590.9525     -4891.9771     -2140.2118     -740.66855    
     35300   8.5033085             64   258.53914     -421.18125      8.5033085      8.5033085      8.5033085     -2813.5447     -1411.5804     -4035.6795     -2993.3742    
     35400   8.5033219             64   286.8626      -421.10255      8.5033219      8.5033219      8.5033219     -2708.726      -2426.7319     -2164.6911     -3534.7549    
     35500   8.5033353             64   318.20861     -420.78947      8.5033353      8.5033353      8.5033353     -854.06389     -196.38016      1301.9257     -3667.7372    
     35600   8.5033487             64   326.96035     -420.84371      8.5033487      8.5033487      8.5033487     -1048.9403     -2731.9549      1762.2578     -2177.1238    
     35700   8.5033622             64   319.55242     -420.99432      8.5033622      8.5033622      8.5033622     -1820.0246     -2043.8898     -776.42473     -2639.7592    
     35800   8.5033756             64   326.46486     -421.39877      8.5033756      8.5033756      8.5033756     -4315.3517     -7167.9183     -1995.2439     -3782.8928    
     35900   8.503389              64   251.4177      -421.07121      8.503389       8.503389       8.503389      -3034.6283     -3701.6124     -954.97766     -4447.2948    
     36000   8.5034023             64   261.23272     -421.08215      8.5034023      8.5034023      8.5034023     -3130.9915     -7986.0321      2514.0514     -3920.994     
     36100   8.5034155             64   318.09608     -420.91073      8.5034155      8.5034155      8.5034155     -1135.5419     -4240.2636      1868.7851     -1035.1473    
     36200   8.5034288             64   321.90198     -420.66957      8.5034288      8.5034288      8.5034288      186.24543     -1241.2563      1853.0916     -53.098946    
     36300   8.503442              64   323.35552     -420.79556      8.503442       8.503442       8.503442       292.00668      780.93429      169.04647     -73.960729    
     36400   8.5034553             64   286.78204     -420.97573      8.5034553      8.5034553      8.5034553     -2455.4785     -6391.2749      2357.3353     -3332.496     
     36500   8.5034685             64   266.64223     -421.07565      8.5034685      8.5034685      8.5034685     -3069.9372     -4625.3402     -211.78364     -4372.6876    
     36600   8.5034817             64   290.77719     -421.06028      8.5034817      8.5034817      8.5034817     -2550.8489     -4771.2191     -856.27245     -2025.0551    
     36700   8.5034948             64   323.46426     -420.57831      8.5034948      8.5034948      8.5034948      2106.065      -1601.023       7894.3018      24.916374    
     36800   8.503508              64   317.09188     -420.53226      8.503508       8.503508       8.503508       2147.595       2177.772       5823.1025     -1558.0896    
     36900   8.5035211             64   309.30956     -420.83813      8.5035211      8.5035211      8.5035211     -266.40962      692.97146      2012.8617     -3505.0621    
     37000   8.5035343             64   273.49999     -420.90559      8.5035343      8.5035343      8.5035343     -2378.8423     -27.987311     -3106.5383     -4002.0013    
     37100   8.5035474             64   293.67226     -421.1587       8.5035474      8.5035474      8.5035474     -3431.5131     -3666.3816     -2415.1556     -4213.0022    
     37200   8.5035605             64   288.91894     -420.7523       8.5035605      8.5035605      8.5035605     -1206.1293     -3627.7511      1717.0189     -1707.6556    
     37300   8.5035735             64   341.74855     -420.62207      8.5035735      8.5035735      8.5035735      828.23723     -1905.3543      731.39773      3658.6682    
     37400   8.5035866             64   313.37        -420.53285      8.5035866      8.5035866      8.5035866      1252.036       3045.8124      4349.3677     -3639.072     
     37500   8.5035997             64   293.23719     -420.72274      8.5035997      8.5035997      8.5035997     -17.866884     -334.25876      3956.7618     -3676.1037    
     37600   8.5036128             64   289.05186     -420.84722      8.5036128      8.5036128      8.5036128     -771.15842      75.843056     -1434.276      -955.04234    
     37700   8.5036259             64   299.80041     -420.93432      8.5036259      8.5036259      8.5036259     -1061.3014     -1115.7075      752.21272     -2820.4093    
     37800   8.5036389             64   300.67195     -420.86914      8.5036389      8.5036389      8.5036389      49.530389      2472.2424      92.902994     -2416.5543    
     37900   8.5036519             64   308.35029     -420.6764       8.5036519      8.5036519      8.5036519      481.77955      3746.6857     -1059.838      -1241.509     
     38000   8.5036649             64   318.09307     -420.08859      8.5036649      8.5036649      8.5036649      4845.6091      3995.8256      5531.6612      5009.3406    
     38100   8.503678              64   293.44686     -420.13406      8.503678       8.503678       8.503678       3911.3122      2537.7595      5513.1182      3683.0589    
     38200   8.5036911             64   298.37173     -420.75971      8.5036911      8.5036911      8.5036911      79.088045      1441.1243      619.79651     -1823.6566    
     38300   8.5037042             64   286.97968     -420.85784      8.5037042      8.5037042      8.5037042     -1406.923       2616.2304     -898.98379     -5938.0157    
     38400   8.5037172             64   300.95935     -421.01037      8.5037172      8.5037172      8.5037172     -2216.1561     -2772.4806     -809.47103     -3066.5166    
     38500   8.5037302             64   293.58976     -420.7562       8.5037302      8.5037302      8.5037302     -977.45615      849.10953     -2606.0215     -1175.4565    
     38600   8.5037432             64   366.56728     -420.78295      8.5037432      8.5037432      8.5037432     -204.85609      0.11225148     2301.3589     -2916.0394    
     38700   8.5037563             64   295.96057     -420.16727      8.5037563      8.5037563      8.5037563      2299.31        2008.0037      4633.5513      256.37508    
     38800   8.5037693             64   267.32252     -420.5721       8.5037693      8.5037693      8.5037693      683.51406      748.91128      3231.4332     -1929.8023    
     38900   8.5037824             64   275.50837     -420.84166      8.5037824      8.5037824      8.5037824     -1278.5004     -1802.182      -1311.5479     -721.77143    
     39000   8.5037954             64   286.38912     -420.85524      8.5037954      8.5037954      8.5037954     -1055.6966     -17.65217       181.16774     -3330.6053    
     39100   8.5038084             64   292.18469     -420.66478      8.5038084      8.5038084      8.5038084     -303.60721      1169.9412     -1262.2307     -818.53212    
     39200   8.5038213             64   350.94841     -420.73692      8.5038213      8.5038213      8.5038213      359.3585       3847.3894     -1422.7288     -1346.5851    
     39300   8.5038343             64   360.86633     -420.53666      8.5038343      8.5038343      8.5038343      975.70859      3223.9678     -1380.8433      1084.0013    
     39400   8.5038473             64   314.98756     -420.71212      8.5038473      8.5038473      8.5038473     -70.976207      1400.2198      780.8762      -2394.0246    
     39500   8.5038604             64   259.81127     -420.7496       8.5038604      8.5038604      8.5038604     -1709.2833      1057.9406     -2021.6085     -4164.182     
     39600   8.5038733             64   289.60604     -421.04615      8.5038733      8.5038733      8.5038733     -2568.3024     -3890.4201     -1963.889      -1850.598     
     39700   8.5038863             64   310.17061     -420.94973      8.5038863      8.5038863      8.5038863     -1868.4411     -359.71382     -4006.78       -1238.8294    
     39800   8.5038992             64   346.56889     -420.73712      8.5038992      8.5038992      8.5038992     -16.97109      -2022.3183      971.80551      999.59956    
     39900   8.5039122             64   354.40232     -420.73507      8.5039122      8.5039122      8.5039122     -199.86033     -110.85793      175.27934     -664.00239    
     40000   8.5039251             64   276.45259     -420.90274      8.5039251      8.5039251      8.5039251     -2345.121      -5079.4602     -1118.5093     -837.3935     
     40100   8.5039381             64   289.7828      -421.19261      8.5039381      8.5039381      8.5039381     -3923.276      -5726.7469     -3086.0881     -2956.9928    
     40200   8.5039509             64   279.72292     -420.85263      8.5039509      8.5039509      8.5039509     -2299.6        -3203.3034     -3500.4663     -195.0302     
     40300   8.5039638             64   345.47246     -420.98026      8.5039638      8.5039638      8.5039638     -1294.6473     -957.53939     -1014.877      -1911.5256    
     40400   8.5039766             64   310.2954      -420.54665      8.5039766      8.5039766      8.5039766      1704.9667      1776.343       3222.3511      116.20607    
     40500   8.5039894             64   290.6313      -420.74208      8.5039894      8.5039894      8.5039894     -12.46642       2649.5168     -5787.8323      3100.9162    
     40600   8.5040022             64   272.20699     -421.17844      8.5040022      8.5040022      8.5040022     -3554.8552     -3550.9872     -3592.9667     -3520.6118    
     40700   8.504015              64   276.03258     -421.10009      8.504015       8.504015       8.504015      -3580.5243     -2496.3063     -5373.079      -2872.1875    
     40800   8.5040277             64   301.17858     -420.93022      8.5040277      8.5040277      8.5040277     -2190.974      -219.84401     -3486.8124     -2866.2655    
     40900   8.5040404             64   309.91579     -420.77608      8.5040404      8.5040404      8.5040404     -699.76566     -1197.3378     -1615.675       713.71587    
     41000   8.504053              64   310.36372     -420.78542      8.504053       8.504053       8.504053      -536.96196      1804.8839     -1815.1914     -1600.5784    
     41100   8.5040657             64   308.52878     -420.88277      8.5040657      8.5040657      8.5040657     -1054.3773     -2683.3951     -2488.9776      2009.2409    
     41200   8.5040783             64   286.06056     -420.82033      8.5040783      8.5040783      8.5040783     -2139.9137     -241.18902     -2657.6414     -3520.9106    
     41300   8.5040909             64   245.25502     -420.86841      8.5040909      8.5040909      8.5040909     -2115.5192     -1634.7019     -2115.7968     -2596.0587    
     41400   8.5041034             64   235.09695     -421.15591      8.5041034      8.5041034      8.5041034     -3851.1714     -2699.3631     -4955.5387     -3898.6123    
     41500   8.5041158             64   262.59132     -421.04294      8.5041158      8.5041158      8.5041158     -2535.1814     -2409.6085     -4224.4644     -971.47132    
     41600   8.5041282             64   291.53551     -420.78687      8.5041282      8.5041282      8.5041282     -1385.3029      4309.6617     -4488.538      -3977.0324    
     41700   8.5041405             64   332.22983     -420.91579      8.5041405      8.5041405      8.5041405     -1113.4902      741.99842     -3716.9319     -365.53708    
     41800   8.5041528             64   339.18317     -420.97387      8.5041528      8.5041528      8.5041528     -1493.1995     -41.446132     -5054.3538      616.20149    
     41900   8.5041651             64   282.31722     -420.90632      8.5041651      8.5041651      8.5041651     -2124.6334     -1687.9929     -4099.9642     -585.9431     
     42000   8.5041774             64   287.91109     -421.39073      8.5041774      8.5041774      8.5041774     -5455.4076     -795.03489     -7494.3218     -8076.866     
     42100   8.5041896             64   287.90034     -421.24629      8.5041896      8.5041896      8.5041896     -4566.6929     -3052.1508     -4270.8766     -6377.0513    
     42200   8.5042017             64   274.64173     -420.70354      8.5042017      8.5042017      8.5042017     -969.05314      1951.6734     -5490.2582      631.4254     
     42300   8.5042138             64   349.49553     -421.19975      8.5042138      8.5042138      8.5042138     -3133.5927     -3108.9056     -5024.5447     -1267.3277    
     42400   8.5042259             64   290.39348     -420.72156      8.5042259      8.5042259      8.5042259     -315.91688      3143.5349     -3037.8434     -1053.4422    
     42500   8.504238              64   301.98089     -420.88734      8.504238       8.504238       8.504238      -1145.0005      839.66029     -3209.6997     -1064.9619    
     42600   8.50425               64   316.4854      -421.2216       8.50425        8.50425        8.50425       -4204.1422     -2716.7786     -6163.8023     -3731.8456    
     42700   8.504262              64   251.47974     -420.94748      8.504262       8.504262       8.504262      -2564.7467     -4753.9785     -2909.0893     -31.172324    
     42800   8.5042739             64   276.46603     -421.07005      8.5042739      8.5042739      8.5042739     -2420.7592     -810.88231     -1766.4595     -4684.9358    
     42900   8.5042858             64   330.843       -420.91833      8.5042858      8.5042858      8.5042858     -615.63622      1651.0989     -4073.7343      575.72665    
     43000   8.5042977             64   351.72968     -420.89049      8.5042977      8.5042977      8.5042977     -824.65114     -3343.9598      284.90645      585.09996    
     43100   8.5043095             64   315.86836     -420.81566      8.5043095      8.5043095      8.5043095     -1244.6098     -3413.0028      2043.983      -2364.8095    
     43200   8.5043214             64   291.20212     -420.99153      8.5043214      8.5043214      8.5043214     -2644.6039     -808.62454     -3863.8589     -3261.3283    
     43300   8.5043332             64   290.23996     -421.20962      8.5043332      8.5043332      8.5043332     -4260.5679     -3129.7298     -4653.6036     -4998.3703    
     43400   8.5043449             64   257.90795     -421.01024      8.5043449      8.5043449      8.5043449     -3362.1375     -2682.405      -4385.7907     -3018.2168    
     43500   8.5043566             64   268.41309     -420.75686      8.5043566      8.5043566      8.5043566     -1623.6333     -5939.9188      3374.6062     -2305.5871    
     43600   8.5043683             64   309.90956     -420.63681      8.5043683      8.5043683      8.5043683     -559.53887      13.905207      1246.9946     -2939.5164    
     43700   8.5043799             64   297.11279     -420.41358      8.5043799      8.5043799      8.5043799      2250.1501      290.96006      6984.3534     -524.86316    
     43800   8.5043915             64   293.48043     -420.73335      8.5043915      8.5043915      8.5043915     -753.15269     -2843.9816      5818.4145     -5233.891     
     43900   8.5044032             64   279.83773     -421.06186      8.5044032      8.5044032      8.5044032     -2938.4338     -7411.2072     -547.18761     -856.90662    
     44000   8.5044147             64   245.83428     -420.79508      8.5044147      8.5044147      8.5044147     -2926.0113     -4944.7451     -3080.261      -753.02762    
     44100   8.5044262             64   260.79348     -420.67168      8.5044262      8.5044262      8.5044262     -1728.3562     -2770.2414     -702.23623     -1712.5908    
     44200   8.5044377             64   270.31286     -420.61278      8.5044377      8.5044377      8.5044377     -511.28301     -2083.3685     -375.09757      924.61703    
     44300   8.5044491             64   337.94627     -421.13125      8.5044491      8.5044491      8.5044491     -2876.1369     -6481.974      -1822.7901     -323.64652    
     44400   8.5044605             64   294.93911     -420.78067      8.5044605      8.5044605      8.5044605     -448.22404     -1795.6986      2276.9922     -1825.9657    
     44500   8.5044719             64   314.12436     -420.97947      8.5044719      8.5044719      8.5044719     -1861.0307     -5574.5474      1898.9304     -1907.4751    
     44600   8.5044832             64   266.84581     -420.75805      8.5044832      8.5044832      8.5044832     -662.07973     -2619.9283      779.24989     -145.56074    
     44700   8.5044945             64   261.36525     -420.86673      8.5044945      8.5044945      8.5044945     -1660.0229     -4348.0445      827.47436     -1459.4986    
     44800   8.5045058             64   272.73341     -420.8646       8.5045058      8.5045058      8.5045058     -1423.2877     -4079.9435      903.28122     -1093.2009    
     44900   8.504517              64   262.79505     -420.30704      8.504517       8.504517       8.504517       2337.0298      794.986        2882.1296      3333.9737    
[...]
    989300   8.5029843             64   271.43081     -420.90046      8.5029843      8.5029843      8.5029843     -686.80997     -2915.4848      2244.7188     -1389.6639    
    989400   8.5029959             64   296.84956     -420.99962      8.5029959      8.5029959      8.5029959     -373.73794      241.6859       293.70143     -1656.6012    
    989500   8.5030076             64   303.38006     -420.88356      8.5030076      8.5030076      8.5030076     -441.60147      1455.3732     -1221.3078     -1558.8698    
    989600   8.5030192             64   348.94738     -421.02571      8.5030192      8.5030192      8.5030192     -388.11127     -1121.2274     -1267.0415      1223.935     
    989700   8.5030309             64   331.35513     -420.62384      8.5030309      8.5030309      8.5030309      1561.2781      1349.1078      2547.1869      787.53946    
    989800   8.5030426             64   329.03741     -420.50298      8.5030426      8.5030426      8.5030426      1892.4711      3392.6385     -131.21342      2415.9884    
    989900   8.5030543             64   305.26027     -420.84892      8.5030543      8.5030543      8.5030543     -734.95928      126.25029     -427.89958     -1903.2285    
    990000   8.503066              64   313.79928     -421.28198      8.503066       8.503066       8.503066      -2788.9524     -3073.5689     -1675.6415     -3617.6466    
    990100   8.5030778             64   278.56048     -420.96741      8.5030778      8.5030778      8.5030778     -1354.1809     -3588.5057      272.20941     -746.24644    
    990200   8.5030894             64   279.1107      -420.54273      8.5030894      8.5030894      8.5030894      1296.3559      3527.8218      802.65474     -441.40872    
    990300   8.5031011             64   356.34207     -420.69452      8.5031011      8.5031011      8.5031011      1275.1757     -991.79414      2809.7487      2007.5726    
    990400   8.5031129             64   297.17499     -420.36625      8.5031129      8.5031129      8.5031129      3401.6879      1208.2012      3892.4476      5104.4149    
    990500   8.5031246             64   301.12751     -420.65763      8.5031246      8.5031246      8.5031246      798.68666     -1967.6432      1844.2004      2519.5027    
    990600   8.5031364             64   276.8141      -420.72648      8.5031364      8.5031364      8.5031364     -620.94743     -139.47131      548.33156     -2271.7025    
    990700   8.5031482             64   274.77827     -420.89846      8.5031482      8.5031482      8.5031482     -1081.7414     -2732.6091     -3690.8162      3178.201     
    990800   8.5031599             64   271.47426     -420.92814      8.5031599      8.5031599      8.5031599     -1508.3628     -2360.5708     -1953.0262     -211.49155    
    990900   8.5031717             64   328.98876     -421.08053      8.5031717      8.5031717      8.5031717     -1979.4977     -1771.0288     -5051.6709      884.20667    
    991000   8.5031834             64   330.87342     -420.67336      8.5031834      8.5031834      8.5031834      962.26754      1079.4467     -525.79548      2333.1514    
    991100   8.5031951             64   331.4174      -420.67785      8.5031951      8.5031951      8.5031951      1290.706       1260.1506     -837.06634      3449.0336    
    991200   8.5032069             64   310.63644     -421.04543      8.5032069      8.5032069      8.5032069     -1610.4527     -2454.8786     -1955.3678     -421.11184    
    991300   8.5032186             64   253.34396     -420.86426      8.5032186      8.5032186      8.5032186     -1551.6169     -4532.9886      212.17804     -334.04022    
    991400   8.5032303             64   300.07402     -421.12342      8.5032303      8.5032303      8.5032303     -1882.7527     -2254.8025      884.28726     -4277.7428    
    991500   8.503242              64   325.65575     -421.09451      8.503242       8.503242       8.503242      -1944.668      -1076.1029     -3907.324      -850.57711    
    991600   8.5032537             64   286.45985     -420.60685      8.5032537      8.5032537      8.5032537      339.96548      1831.3349     -333.52259     -477.91591    
    991700   8.5032654             64   295.18967     -420.673        8.5032654      8.5032654      8.5032654      257.16486      1721.3968     -1722.5732      772.67098    
    991800   8.5032771             64   303.8111      -420.97092      8.5032771      8.5032771      8.5032771     -1042.9262     -3136.9919     -1432.1221      1440.3354    
    991900   8.5032887             64   253.86001     -421.28444      8.5032887      8.5032887      8.5032887     -3984.2153     -5537.375      -3958.4557     -2456.8153    
    992000   8.5033003             64   251.78688     -421.10767      8.5033003      8.5033003      8.5033003     -2387.6116     -2317.0089     -3826.439      -1019.387     
    992100   8.5033118             64   302.24187     -420.98098      8.5033118      8.5033118      8.5033118     -1506.3705      774.99215     -3596.4486     -1697.6549    
    992200   8.5033234             64   344.2543      -421.03691      8.5033234      8.5033234      8.5033234     -980.34285     -2564.6137      2542.4098     -2918.8246    
    992300   8.5033349             64   311.84794     -420.71789      8.5033349      8.5033349      8.5033349      433.90053      2060.1807      3380.297      -4138.7761    
    992400   8.5033464             64   298.93191     -420.88598      8.5033464      8.5033464      8.5033464     -1034.6479     -863.15878      990.30476     -3231.0896    
    992500   8.5033579             64   247.40637     -421.00818      8.5033579      8.5033579      8.5033579     -2218.7635     -3455.057      -4793.5914      1592.358     
    992600   8.5033694             64   271.23072     -421.18216      8.5033694      8.5033694      8.5033694     -3225.2446     -3485.194      -5172.8344     -1017.7054    
    992700   8.5033808             64   279.02758     -420.85497      8.5033808      8.5033808      8.5033808     -1191.9301     -2879.8968     -1756.1434      1060.2501    
    992800   8.5033922             64   296.87797     -420.83014      8.5033922      8.5033922      8.5033922     -361.47376     -454.11897     -1398.1219      767.81961    
    992900   8.5034036             64   315.47865     -420.92988      8.5034036      8.5034036      8.5034036     -816.52078      99.261315     -4977.2046      2428.3809    
    993000   8.5034149             64   262.64428     -420.49969      8.5034149      8.5034149      8.5034149      741.6498       2843.9284     -741.13035      122.15137    
    993100   8.5034263             64   283.15126     -420.75251      8.5034263      8.5034263      8.5034263      112.70099     -315.90434      2146.0584     -1492.0511    
    993200   8.5034376             64   266.57304     -420.84511      8.5034376      8.5034376      8.5034376     -980.96841     -1877.9271     -216.45686     -848.52125    
    993300   8.5034489             64   283.1852      -421.11554      8.5034489      8.5034489      8.5034489     -2676.6646     -2469.4298     -3670.6126     -1889.9514    
    993400   8.5034602             64   305.36438     -421.05486      8.5034602      8.5034602      8.5034602     -2441.0591     -1605.6147     -2782.8682     -2934.6942    
    993500   8.5034714             64   339.79188     -420.78953      8.5034714      8.5034714      8.5034714      450.29078     -739.85484      813.09234      1277.6348    
    993600   8.5034827             64   352.65424     -420.83486      8.5034827      8.5034827      8.5034827     -12.519095      1032.5124     -1343.4505      273.38073    
    993700   8.503494              64   314.1193      -420.85936      8.503494       8.503494       8.503494      -1090.1583      333.85691     -1676.1251     -1928.2067    
    993800   8.5035053             64   278.6516      -420.84431      8.5035053      8.5035053      8.5035053     -1556.6311      34.908062     -4622.2424     -82.558785    
    993900   8.5035165             64   273.82306     -420.79959      8.5035165      8.5035165      8.5035165     -917.05414      1929.4633     -4257.6313     -422.99439    
    994000   8.5035278             64   304.52219     -420.92844      8.5035278      8.5035278      8.5035278     -883.74932      5042.4902     -4974.0158     -2719.7224    
    994100   8.503539              64   305.28651     -420.72294      8.503539       8.503539       8.503539       723.321        7417.0679     -4785.0378     -462.0671     
    994200   8.5035502             64   363.7654      -420.90535      8.5035502      8.5035502      8.5035502      243.61231      4915.5634     -662.99261     -3521.7339    
    994300   8.5035614             64   338.99361     -420.53942      8.5035614      8.5035614      8.5035614      2927.9327      6419.611       2741.5124     -377.32528    
    994400   8.5035727             64   288.29101     -420.62735      8.5035727      8.5035727      8.5035727      917.96812     -2857.7258      4366.8362      1244.794     
    994500   8.503584              64   293.31866     -421.10057      8.503584       8.503584       8.503584      -3361.1232     -4062.6217     -1880.899      -4139.849     
    994600   8.5035952             64   270.67405     -420.91811      8.5035952      8.5035952      8.5035952     -2838.4984      611.7167      -4409.2363     -4717.9755    
    994700   8.5036064             64   285.44717     -420.69454      8.5036064      8.5036064      8.5036064     -145.42653     -870.34377      976.20669     -542.14251    
    994800   8.5036176             64   351.17611     -420.68487      8.5036176      8.5036176      8.5036176      677.70176      2571.6788     -2396.2945      1857.7209    
    994900   8.5036288             64   384.69324     -421.01375      8.5036288      8.5036288      8.5036288     -748.33631     -1856.39       -863.27518      474.65622    
    995000   8.5036401             64   275.75546     -420.37046      8.5036401      8.5036401      8.5036401      2087.1184      8082.8804     -1299.5922     -521.93303    
    995100   8.5036514             64   305.18395     -420.86517      8.5036514      8.5036514      8.5036514      107.23735      5754.1394     -1110.1176     -4322.3097    
    995200   8.5036626             64   306.068       -421.12204      8.5036626      8.5036626      8.5036626     -1858.6169      2801.8956     -2845.7415     -5532.0048    
    995300   8.5036738             64   238.10017     -420.70241      8.5036738      8.5036738      8.5036738     -145.47957      3011.8771      1676.289      -5124.6048    
    995400   8.503685              64   290.17654     -420.91377      8.503685       8.503685       8.503685      -877.13923      4455.9385     -919.50831     -6167.8478    
    995500   8.5036961             64   371.58855     -421.02081      8.5036961      8.5036961      8.5036961     -1617.6444      2273.8736     -3162.119      -3964.6879    
    995600   8.5037073             64   332.16347     -420.63223      8.5037073      8.5037073      8.5037073     -155.80829     -1994.6257      2073.0686     -545.86772    
    995700   8.5037184             64   306.85229     -420.90169      8.5037184      8.5037184      8.5037184     -2533.2735     -1034.1432     -154.40264     -6411.2745    
    995800   8.5037296             64   278.22632     -421.01854      8.5037296      8.5037296      8.5037296     -3187.959      -7649.314      -1299.2982     -615.26484    
    995900   8.5037407             64   255.02564     -420.76346      8.5037407      8.5037407      8.5037407     -1502.2178      1188.3986     -3295.3096     -2399.7425    
    996000   8.5037518             64   297.37083     -420.89176      8.5037518      8.5037518      8.5037518     -1312.3091      1979.4109     -1196.2795     -4720.0588    
    996100   8.5037628             64   338.40361     -421.00849      8.5037628      8.5037628      8.5037628     -706.4509       327.69819     -2637.4143      190.36345    
    996200   8.5037739             64   311.70674     -420.60295      8.5037739      8.5037739      8.5037739      1818.0814      9554.5937     -2297.4188     -1802.9306    
    996300   8.503785              64   353.67513     -420.54849      8.503785       8.503785       8.503785       3094.4735      11723.624     -112.07249     -2328.1309    
    996400   8.5037961             64   289.10594     -420.17817      8.5037961      8.5037961      8.5037961      4255.2257      4941.3449      5460.4685      2363.8636    
    996500   8.5038072             64   285.49061     -420.76699      8.5038072      8.5038072      8.5038072     -362.5616      -12.069479      581.41757     -1657.0329    
    996600   8.5038183             64   262.69085     -420.79094      8.5038183      8.5038183      8.5038183     -1353.9377     -3725.5867     -675.94946      339.72296    
    996700   8.5038294             64   242.57908     -420.56874      8.5038294      8.5038294      8.5038294     -714.92247      2986.9986     -1585.0646     -3546.7013    
    996800   8.5038404             64   328.30343     -420.80146      8.5038404      8.5038404      8.5038404     -1018.5073      1158.1842     -2655.0945     -1558.6116    
    996900   8.5038515             64   348.57884     -420.48602      8.5038515      8.5038515      8.5038515      1565.3211      4100.9427      1083.3363     -488.31571    
    997000   8.5038625             64   328.43145     -420.60098      8.5038625      8.5038625      8.5038625      580.80805      752.26502      1415.2174     -425.0583     
    997100   8.5038736             64   329.90513     -420.91634      8.5038736      8.5038736      8.5038736     -1524.6296     -152.14571     -723.47734     -3698.2657    
    997200   8.5038847             64   312.66583     -420.9365       8.5038847      8.5038847      8.5038847     -1633.0315      504.46504     -1228.06       -4175.4995    
    997300   8.5038958             64   262.00679     -420.68121      8.5038958      8.5038958      8.5038958     -70.156077      708.10609      946.52686     -1865.1012    
    997400   8.5039069             64   242.8319      -420.64362      8.5039069      8.5039069      8.5039069     -150.00913      3475.0198     -1649.7128     -2275.3343    
    997500   8.5039179             64   306.16518     -421.15636      8.5039179      8.5039179      8.5039179     -2508.9694      466.98469     -4621.9011     -3371.9919    
    997600   8.5039289             64   324.95101     -420.96204      8.5039289      8.5039289      8.5039289     -1327.1276      28.324334      31.200836     -4040.908     
    997700   8.5039399             64   300.35467     -420.38202      8.5039399      8.5039399      8.5039399      2661.3832      8098.5881     -70.329737     -44.108848    
    997800   8.5039509             64   317.88137     -420.61456      8.5039509      8.5039509      8.5039509      730.13644     -1719.3166      2972.5374      937.18851    
    997900   8.5039618             64   297.8775      -421.12025      8.5039618      8.5039618      8.5039618     -2592.4013     -2072.7156     -2036.7522     -3667.7361    
    998000   8.5039728             64   275.78752     -421.07598      8.5039728      8.5039728      8.5039728     -3304.184      -4119.674      -1264.9354     -4527.9427    
    998100   8.5039837             64   319.6262      -421.21478      8.5039837      8.5039837      8.5039837     -3908.4037     -6070.0772     -2828.8875     -2826.2464    
    998200   8.5039946             64   327.77697     -420.95274      8.5039946      8.5039946      8.5039946     -1554.1483     -283.59433     -3624.4353     -754.41525    
    998300   8.5040054             64   335.24647     -420.84387      8.5040054      8.5040054      8.5040054     -258.74947      5228.1105     -5892.9146     -111.44434    
    998400   8.5040163             64   328.38742     -421.01853      8.5040163      8.5040163      8.5040163     -1624.2045      653.46633     -2412.3388     -3113.7409    
    998500   8.5040271             64   268.7362      -421.22546      8.5040271      8.5040271      8.5040271     -4494.7951     -830.72997     -4689.2734     -7964.3819    
    998600   8.5040379             64   281.11167     -421.25241      8.5040379      8.5040379      8.5040379     -4829.7251     -2029.9054     -6038.6119     -6420.6581    
    998700   8.5040486             64   321.84741     -421.09343      8.5040486      8.5040486      8.5040486     -2570.2852     -1372.4021     -2337.8301     -4000.6235    
    998800   8.5040592             64   312.1232      -420.74292      8.5040592      8.5040592      8.5040592     -136.08785      4022.4806      1071.695      -5502.4392    
    998900   8.5040699             64   282.71058     -420.52539      8.5040699      8.5040699      8.5040699      386.92532      2492.9637      464.9557      -1797.1434    
    999000   8.5040806             64   307.69181     -421.04824      8.5040806      8.5040806      8.5040806     -2997.203      -286.12332     -2352.2963     -6353.1893    
    999100   8.5040912             64   262.05564     -421.26855      8.5040912      8.5040912      8.5040912     -4740.1199     -1338.0229     -6736.4616     -6145.8753    
    999200   8.5041017             64   256.59852     -421.1582       8.5041017      8.5041017      8.5041017     -4229.5035     -2248.7258     -4197.2238     -6242.5609    
    999300   8.5041121             64   290.97599     -421.11373      8.5041121      8.5041121      8.5041121     -3879.3615     -6407.2886     -1690.4997     -3540.2961    
    999400   8.5041225             64   309.51145     -421.00803      8.5041225      8.5041225      8.5041225     -2365.6748     -2483.3409     -4718.9087      105.22517    
    999500   8.5041329             64   347.66429     -421.09759      8.5041329      8.5041329      8.5041329     -3010.305      -5019.5346     -3074.187      -937.19346    
    999600   8.5041433             64   292.9933      -420.53447      8.5041433      8.5041433      8.5041433      211.01667      1142.6161      2467.0472     -2976.6133    
    999700   8.5041536             64   323.71086     -420.92754      8.5041536      8.5041536      8.5041536     -1643.7162     -631.92007      559.9561      -4859.1848    
    999800   8.5041639             64   330.15513     -421.45711      8.5041639      8.5041639      8.5041639     -4528.0332     -3432.3801     -2424.1626     -7727.5568    
    999900   8.5041742             64   238.87533     -420.85179      8.5041742      8.5041742      8.5041742     -2054.5818      2085.7411     -3365.5121     -4883.9743    
   1000000   8.5041844             64   267.85842     -420.71391      8.5041844      8.5041844      8.5041844     -799.18393      5252.6545     -7556.8864     -93.319911    
Loop time of 702.337 on 1 procs for 1000000 steps with 64 atoms

Performance: 123.018 ns/day, 0.195 hours/ns, 1423.818 timesteps/s
99.4% CPU use with 1 MPI tasks x no OpenMP threads

MPI task timing breakdown:
Section |  min time  |  avg time  |  max time  |%varavg| %total
---------------------------------------------------------------
Pair    | 696.58     | 696.58     | 696.58     |   0.0 | 99.18
Neigh   | 0          | 0          | 0          |   0.0 |  0.00
Comm    | 2.7695     | 2.7695     | 2.7695     |   0.0 |  0.39
Output  | 0.65239    | 0.65239    | 0.65239    |   0.0 |  0.09
Modify  | 1.8137     | 1.8137     | 1.8137     |   0.0 |  0.26
Other   |            | 0.5167     |            |       |  0.07

Nlocal:             64 ave          64 max          64 min
Histogram: 1 0 0 0 0 0 0 0 0 0
Nghost:           1267 ave        1267 max        1267 min
Histogram: 1 0 0 0 0 0 0 0 0 0
Neighs:           3904 ave        3904 max        3904 min
Histogram: 1 0 0 0 0 0 0 0 0 0
FullNghs:         7808 ave        7808 max        7808 min
Histogram: 1 0 0 0 0 0 0 0 0 0

Total # of neighbors = 7808
Ave neighs/atom = 122
Neighbor list builds = 0
Dangerous builds = 0
Total wall time: 0:11:42
