LAMMPS (23 Jun 2022)
Lattice spacing in x,y,z = 4.609 4.609 4.609
Created triclinic box = (-4.609 -4.609 -4.609) to (4.609 4.609 4.609) with tilt (0 0 0)
  1 by 1 by 1 MPI processor grid
Lattice spacing in x,y,z = 4.609 4.609 4.609
Created 32 atoms
  using lattice units in triclinic box = (-4.609 -4.609 -4.609) to (4.609 4.609 4.609) with tilt (0 0 0)
  create_atoms CPU = 0.000 seconds
Lattice spacing in x,y,z = 4.609 4.609 4.609
Created 32 atoms
  using lattice units in triclinic box = (-4.609 -4.609 -4.609) to (4.609 4.609 4.609) with tilt (0 0 0)
  create_atoms CPU = 0.000 seconds
Reading MEAM library file library_ZrN.meam with DATE: 2015-02-12
Neighbor list info ...
  update every 1 steps, delay 0 steps, check yes
  max neighbors/atom: 2000, page size: 100000
  master list distance cutoff = 6.26
  ghost atom cutoff = 6.26
  2 neighbor lists, perpetual/occasional/extra = 2 0 0
  (1) pair meam, perpetual
      attributes: full, newton on
      pair build: full/nsq
      stencil: none
      bin: none
  (2) pair meam, perpetual, half/full from (1)
      attributes: half, newton on
      pair build: halffull/newton
      stencil: none
      bin: none
Setting up cg style minimization ...
  Unit style    : metal
  Current step  : 0
WARNING: Energy due to 3 extra global DOFs will be included in minimizer energies
Per MPI rank memory allocation (min/avg/max) = 10.94 | 10.94 | 10.94 Mbytes
   Step          Temp          PotEng         Press           Pxx            Pyy            Pzz            Pxy            Pxz            Pyz             Lx             Ly             Lz           Volume    
         0   0             -472.76778      1401.362       1401.362       1401.362       1401.362      -2.8387065e-14  0             -5.677413e-14   9.218          9.218          9.218          783.26751    
         1   0             -472.76794      754.99711      754.99711      754.99711      754.99711     -7.0946376e-15 -1.0641956e-14  0              9.2189218      9.2189218      9.2189218      783.50251    
         2   0             -472.768        109.46696      109.46696      109.46696      109.46696     -1.7731275e-15 -1.7731275e-15 -8.8656373e-16  9.2198436      9.2198436      9.2198436      783.73756    
         3   0             -472.768       -0.040601442   -0.040601442   -0.040601442   -0.040601442   -4.7065119e-19 -4.328704e-19   5.41088e-19    9.2200001      9.2200001      9.2200001      783.77747    
         4   0             -472.768       -3.6002349e-06 -3.6002349e-06 -3.6002349e-06 -3.6002349e-06  2.2649173e-23  1.3176528e-23 -5.2840626e-23  9.22           9.22           9.22           783.77746    
         5   0             -472.768        4.6879993e-10  4.6714339e-10  4.689743e-10   4.7028209e-10  5.3164349e-26 -3.2251359e-26  3.2251359e-27  9.22           9.22           9.22           783.77746    
Loop time of 0.00423129 on 1 procs for 5 steps with 64 atoms

96.5% CPU use with 1 MPI tasks x no OpenMP threads

Minimization stats:
  Stopping criterion = force tolerance
  Energy initial, next-to-last, final = 
     -472.767777143677  -472.768000039463  -472.768000039463
  Force two-norm initial, final = 1.1866174 4.0202065e-13
  Force max component initial, final = 0.68509388 2.3000996e-13
  Final line search alpha, max atom move = 1 2.3000996e-13
  Iterations, force evaluations = 5 8

MPI task timing breakdown:
Section |  min time  |  avg time  |  max time  |%varavg| %total
---------------------------------------------------------------
Pair    | 0.0038091  | 0.0038091  | 0.0038091  |   0.0 | 90.02
Neigh   | 0          | 0          | 0          |   0.0 |  0.00
Comm    | 2.4644e-05 | 2.4644e-05 | 2.4644e-05 |   0.0 |  0.58
Output  | 0.00022831 | 0.00022831 | 0.00022831 |   0.0 |  5.40
Modify  | 0          | 0          | 0          |   0.0 |  0.00
Other   |            | 0.0001693  |            |       |  4.00

Nlocal:             64 ave          64 max          64 min
Histogram: 1 0 0 0 0 0 0 0 0 0
Nghost:            665 ave         665 max         665 min
Histogram: 1 0 0 0 0 0 0 0 0 0
Neighs:           2560 ave        2560 max        2560 min
Histogram: 1 0 0 0 0 0 0 0 0 0
FullNghs:         5120 ave        5120 max        5120 min
Histogram: 1 0 0 0 0 0 0 0 0 0

Total # of neighbors = 5120
Ave neighs/atom = 80
Neighbor list builds = 0
Dangerous builds = 0
Displacing atoms ...
System init for write_restart ...
Reading restart file ...
  restart file = 23 Jun 2022, LAMMPS = 23 Jun 2022
  restoring atom style atomic from restart
  triclinic box = (-4.61 -4.61 -4.61) to (4.61 4.61 4.61) with tilt (0 0 0)
  1 by 1 by 1 MPI processor grid
  pair style meam stores no restart info
  64 atoms
  read_restart CPU = 0.000 seconds
Reading MEAM library file library_ZrN.meam with DATE: 2015-02-12
Changing box ...
  triclinic box = (-4.61 -4.61 -4.61) to (4.6099078 4.61 4.61) with tilt (0 0 0)
  triclinic box = (-4.61 -4.61 -4.61) to (4.6099078 4.61 4.61) with tilt (0 0 0)
  triclinic box = (-4.61 -4.61 -4.61) to (4.6099078 4.61 4.61) with tilt (0 0 0)
Neighbor list info ...
  update every 1 steps, delay 0 steps, check yes
  max neighbors/atom: 2000, page size: 100000
  master list distance cutoff = 6.26
  ghost atom cutoff = 6.26
  2 neighbor lists, perpetual/occasional/extra = 2 0 0
  (1) pair meam, perpetual
      attributes: full, newton on
      pair build: full/nsq
      stencil: none
      bin: none
  (2) pair meam, perpetual, half/full from (1)
      attributes: half, newton on
      pair build: halffull/newton
      stencil: none
      bin: none
Setting up cg style minimization ...
  Unit style    : metal
  Current step  : 5
Per MPI rank memory allocation (min/avg/max) = 9.919 | 9.919 | 9.919 Mbytes
   Step          Temp          PotEng         Press           Pxx            Pyy            Pzz            Pxy            Pxz            Pyz             Lx             Ly             Lz           Volume    
         5   0             -472.768        21.504643      57.709925      3.4020012      3.4020014     -9.8409152e-08  1.7469776e-07 -1.6790453e-07  9.2199078      9.22           9.22           783.76962    
         6   0             -472.768        21.504641      57.709923      3.4019994      3.4019995      8.3305866e-09 -5.0827887e-08 -4.516091e-09   9.2199078      9.22           9.22           783.76962    
         7   0             -472.768        21.50464       57.709923      3.4019993      3.4019993     -4.2747916e-10  3.0251962e-09  7.014204e-10   9.2199078      9.22           9.22           783.76962    
         8   0             -472.768        21.50464       57.709923      3.4019993      3.4019992      7.5302016e-10  3.7371912e-09  4.0855975e-09  9.2199078      9.22           9.22           783.76962    
         9   0             -472.768        21.50464       57.709923      3.4019992      3.4019992      4.241703e-09   4.3579168e-09  7.9742692e-09  9.2199078      9.22           9.22           783.76962    
        10   0             -472.768        21.504629      57.709905      3.4019911      3.40199        1.5819638e-07  1.7024871e-07  1.4554318e-07  9.2199078      9.22           9.22           783.76962    
        11   0             -472.768        21.488941      57.686125      3.3910706      3.3896281      0.00014425702  0.00022762745  0.00017345649  9.2199078      9.22           9.22           783.76962    
        12   0             -472.76984     -75.938802     -89.984751     -64.450251     -73.381404      0.88468439     1.4163809      1.0855391      9.2199078      9.22           9.22           783.76962    
        13   0             -472.77525     -363.22833     -525.22773     -264.62635     -299.83091      3.4863813      5.5960469      4.3233082      9.2199078      9.22           9.22           783.76962    
        14   0             -472.78417     -840.05516     -1246.989      -597.2642      -675.91229      7.7932973      12.534536      9.7736158      9.2199078      9.22           9.22           783.76962    
        15   0             -472.79647     -1505.8988     -2253.5674     -1062.5682     -1201.5607      13.792318      22.216996      17.504831      9.2199078      9.22           9.22           783.76962    
        16   0             -472.812       -2360.1175     -3542.7355     -1660.8743     -1876.7428      21.47001       34.61938       27.593187      9.2199078      9.22           9.22           783.76962    
        17   0             -472.83058     -3402.3272     -5112.319      -2392.9107     -2701.7518      30.816781      49.713685      40.126132      9.2199078      9.22           9.22           783.76962    
        18   0             -472.8521      -4635.0551     -6964.1928     -3261.7229     -3679.2497      41.858907      67.505192      55.2279        9.2199078      9.22           9.22           783.76962    
        19   0             -472.87737     -6086.3058     -9138.0269     -4289.0929     -4831.7977      54.941151      88.344446      73.249947      9.2199078      9.22           9.22           783.76962    
        20   0             -472.90962     -7726.6168     -11586.99      -5458.3333     -6134.5275      70.882199      111.29014      92.379668      9.2199078      9.22           9.22           783.76962    
        21   0             -472.93359     -8972.2931     -13440.802     -6345.2232     -7130.8543      84.600219      122.62738      103.26387      9.2199078      9.22           9.22           783.76962    
        22   0             -472.97028     -11144.269     -16664.146     -7899.7593     -8868.9019      110.79793      148.77629      129.06723      9.2199078      9.22           9.22           783.76962    
        23   0             -473.01429     -13915.709     -20746.076     -9889.5461     -11111.504      144.99017      186.4662       142.91744      9.2199078      9.22           9.22           783.76962    
        24   0             -473.05482     -16614.993     -24711.525     -11857.496     -13275.957      175.32753      207.89158      197.2533       9.2199078      9.22           9.22           783.76962    
        25   0             -473.09671     -19520.979     -28928.367     -13973.783     -15660.786      223.5138       252.80178      187.58386      9.2199078      9.22           9.22           783.76962    
        26   0             -473.14055     -22758.74      -33620.807     -16379.67      -18275.743      242.94236      280.09325      258.42033      9.2199078      9.22           9.22           783.76962    
        27   0             -473.18362     -26281.819     -38655.327     -18991.172     -21198.957      327.15637      333.20953      241.3598       9.2199078      9.22           9.22           783.76962    
        28   0             -473.22278     -29701.31      -43540.962     -21587.146     -23975.822      327.6314       358.04648      340.61412      9.2199078      9.22           9.22           783.76962    
        29   0             -473.26243     -33494.764     -48863.636     -24452.871     -27167.786      438.27322      423.54629      316.71247      9.2199078      9.22           9.22           783.76962    
        30   0             -473.30324     -37298.472     -54203.852     -27390.483     -30301.081      454.28763      451.01558      679.23175      9.2199078      9.22           9.22           783.76962    
        31   0             -473.35743     -40809.855     -59094.691     -30088.387     -33246.487      538.07975      501.46204      1584.9222      9.2199078      9.22           9.22           783.76962    
        32   0             -473.44059     -43568.678     -63009.489     -32156.255     -35540.288      606.18437      528.9685       3143.6701      9.2199078      9.22           9.22           783.76962    
        33   0             -473.56681     -45686.517     -66166.949     -33644.515     -37248.086      661.39983      536.15051      5201.4419      9.2199078      9.22           9.22           783.76962    
        34   0             -473.73883     -47178.024     -68656.32      -34542.791     -38334.962      706.54311      575.05851      7504.461       9.2199078      9.22           9.22           783.76962    
        35   0             -473.94944     -48052.405     -70568.69      -34843.343     -38745.18       743.31533      855.18088      9790.6319      9.2199078      9.22           9.22           783.76962    
        36   0             -474.18822     -48425.515     -72132.543     -34622.882     -38521.119      775.75318      1557.8628      12032.308      9.2199078      9.22           9.22           783.76962    
        37   0             -474.44186     -48481.371     -73644.594     -34017.802     -37781.718      808.54003      2825.0304      14434.942      9.2199078      9.22           9.22           783.76962    
        38   0             -474.69166     -48349.418     -75245.506     -33149.354     -36653.393      746.4328       4692.9984      17116.129      9.2199078      9.22           9.22           783.76962    
        39   0             -474.93939     -48070.729     -77006.952     -32026.506     -35178.728      505.08784      7141.4113      20006.963      9.2199078      9.22           9.22           783.76962    
        40   0             -475.19791     -47610.397     -78880.891     -30594.035     -33356.266      151.38114      9991.5699      22653.312      9.2199078      9.22           9.22           783.76962    
        41   0             -475.4711      -46912.311     -80608.249     -28856.938     -31271.746     -206.49023      12677.17       24351.979      9.2199078      9.22           9.22           783.76962    
        42   0             -475.71719     -46093.05      -81722.701     -27189.935     -29366.514     -480.05875      14098.593      24889.782      9.2199078      9.22           9.22           783.76962    
        43   0             -475.93035     -45255.272     -82252.74      -25752.178     -27760.898     -626.63073      14241.809      24889.315      9.2199078      9.22           9.22           783.76962    
        44   0             -476.12878     -44402.346     -82388.692     -24479.756     -26338.589     -642.29002      13513.413      24803.403      9.2199078      9.22           9.22           783.76962    
        45   0             -476.32533     -43538.336     -82254.214     -23330.913     -25029.882     -529.7603       12273.774      24942.456      9.2199078      9.22           9.22           783.76962    
        46   0             -476.53504     -42655.886     -81927.458     -22268.756     -23771.445     -262.6938       10794.996      25704.531      9.2199078      9.22           9.22           783.76962    
        47   0             -476.77741     -41718.276     -81440.711     -21246.004     -22468.112      135.70558      9249.3603      27723.847      9.2199078      9.22           9.22           783.76962    
        48   0             -477.06363     -40708.706     -80879.19      -20209.676     -21037.254      845.34269      7819.8123      31697.942      9.2199078      9.22           9.22           783.76962    
        49   0             -477.37822     -39664.119     -80384.959     -19130.969     -19476.428      1958.5572      6636.1675      37257.903      9.2199078      9.22           9.22           783.76962    
        50   0             -477.68075     -38656.544     -80064.82      -18016.032     -17888.78       3496.4617      5621.1081      42393.734      9.2199078      9.22           9.22           783.76962    
        51   0             -477.94553     -37709.041     -79893.575     -16875.039     -16358.51       5439.5234      4644.681       45632.374      9.2199078      9.22           9.22           783.76962    
        52   0             -478.18351     -36760.294     -79820.459     -15639.709     -14820.714      7527.6497      3613.6902      47074.029      9.2199078      9.22           9.22           783.76962    
        53   0             -478.40571     -35766.401     -79804.737     -14262.863     -13231.603      9683.5608      2487.5937      47141.456      9.2199078      9.22           9.22           783.76962    
        54   0             -478.62238     -34686.191     -79757.973     -12730.047     -11570.552      11654.471      1277.0987      46266.949      9.2199078      9.22           9.22           783.76962    
        55   0             -478.84421     -33460.84      -79516.191     -11045.524     -9820.8046      12934.688      19.761909      44807.667      9.2199078      9.22           9.22           783.76962    
        56   0             -479.05873     -32155.711     -78928.942     -9386.3662     -8151.8255      12924.058     -1078.8101      43166.079      9.2199078      9.22           9.22           783.76962    
        57   0             -479.25178     -30873.032     -78010.177     -7899.809      -6709.1088      11669.559     -1814.4202      41625.797      9.2199078      9.22           9.22           783.76962    
        58   0             -479.43383     -29564.718     -76788.935     -6491.587      -5413.633       9515.2318     -2108.8083      40141.044      9.2199078      9.22           9.22           783.76962    
        59   0             -479.61361     -28192.96      -75256.59      -5102.2327     -4220.059       6743.6503     -1838.0259      38661.324      9.2199078      9.22           9.22           783.76962    
        60   0             -479.80435     -26694.547     -73300.719     -3687.6426     -3095.2812      3639.7307     -888.05781      37124.324      9.2199078      9.22           9.22           783.76962    
        61   0             -479.98245     -25340.305     -71267.753     -2492.5311     -2260.63        1195.4545      402.07256      35780.897      9.2199078      9.22           9.22           783.76962    
        62   0             -480.15251     -24135.052     -69202.964     -1494.9451     -1707.248      -277.3673       1642.0736      34589.923      9.2199078      9.22           9.22           783.76962    
        63   0             -480.30618     -23151.613     -67272.363     -722.06009     -1460.4154     -697.50418      2503.1052      33548.245      9.2199078      9.22           9.22           783.76962    
        64   0             -480.45179     -22332.612     -65431.223     -84.244194     -1482.3692     -374.58436      2966.5758      32538.127      9.2199078      9.22           9.22           783.76962    
        65   0             -480.59526     -21662.674     -63683.271      475.41795     -1780.1677      454.01605      3071.493       31483.653      9.2199078      9.22           9.22           783.76962    
        66   0             -480.73106     -21177.61      -62171.768      967.6283      -2328.6921      1519.2323      2918.561       30421.666      9.2199078      9.22           9.22           783.76962    
        67   0             -480.86254     -20831.991     -60870.276      1442.434      -3068.1304      2716.1949      2672.279       29343.242      9.2199078      9.22           9.22           783.76962    
        68   0             -480.9935      -20589.354     -59757.054      1936.0301     -3947.0395      4060.2999      2502.6998      28239.827      9.2199078      9.22           9.22           783.76962    
        69   0             -481.13003     -20433.871     -58833.387      2467.4213     -4935.6463      5623.2722      2639.1527      27091.8        9.2199078      9.22           9.22           783.76962    
        70   0             -481.28461     -20364.68      -58173.811      3095.4071     -6015.6364      7715.4557      3473.3285      25832.75       9.2199078      9.22           9.22           783.76962    
        71   0             -481.46208     -20361.135     -57926.601      3851.103      -7007.9057      10541.93       5446.755       24490.047      9.2199078      9.22           9.22           783.76962    
        72   0             -481.63486     -20343.968     -58029.357      4611.0942     -7613.6417      13442.924      7994.643       23318.453      9.2199078      9.22           9.22           783.76962    
        73   0             -481.81656     -20237.584     -58212.399      5420.5146     -7920.8682      16302.335      10588.909      22207.937      9.2199078      9.22           9.22           783.76962    
        74   0             -482.01288     -20005.422     -58293.771      6278.4194     -8000.9139      18946.243      12768.713      21073.289      9.2199078      9.22           9.22           783.76962    
        75   0             -482.22502     -19634.798     -58152.089      7162.7868     -7915.0918      21192.704      14213.606      19836.068      9.2199078      9.22           9.22           783.76962    
        76   0             -482.45204     -19125.656     -57716.864      8066.4558     -7726.5605      22927.845      15092.903      18427.84       9.2199078      9.22           9.22           783.76962    
        77   0             -482.692       -18480.83      -56951.487      8984.9113     -7475.9143      24005.29       15260.713      16774.624      9.2199078      9.22           9.22           783.76962    
        78   0             -482.94504     -17705.687     -55833.554      9927.7695     -7211.2753      24255.988      14726.021      14802.617      9.2199078      9.22           9.22           783.76962    
        79   0             -483.21475     -16797.637     -54329.102      10922.861     -6986.6689      23484.978      13645.556      12426.506      9.2199078      9.22           9.22           783.76962    
        80   0             -483.51146     -15731.845     -52366.07       12027.951     -6857.4169      21443.714      12180.304      9504.7556      9.2199078      9.22           9.22           783.76962    
        81   0             -483.86325     -14419.844     -49752.339      13381.897     -6889.0892      17666.449      10491.659      5841.51        9.2199078      9.22           9.22           783.76962    
        82   0             -484.23212     -13077.468     -46960.043      14855.845     -7128.2069      12650.967      9193.0989      2162.5546      9.2199078      9.22           9.22           783.76962    
        83   0             -484.56787     -11943.694     -44595.246      16210.355     -7446.1906      7921.2853      8496.5759     -919.27327      9.2199078      9.22           9.22           783.76962    
        84   0             -484.86942     -10954.781     -42589.117      17424.293     -7699.5181      4224.3636      8065.2        -3763.0309      9.2199078      9.22           9.22           783.76962    
        85   0             -485.16073     -9958.234      -40621.511      18583.041     -7836.2312      1643.7531      7548.8968     -6719.3739      9.2199078      9.22           9.22           783.76962    
        86   0             -485.44503     -8890.0396     -38561.492      19680.951     -7789.5782      212.33191      6706.4443     -9747.5912      9.2199078      9.22           9.22           783.76962    
        87   0             -485.7205      -7725.762      -36373.606      20687.752     -7491.4318     -258.77645      5506.4556     -12550.627      9.2199078      9.22           9.22           783.76962    
        88   0             -485.98171     -6482.9244     -34104.523      21556.324     -6900.5746     -56.936586      4068.7716     -14707.838      9.2199078      9.22           9.22           783.76962    
        89   0             -486.22098     -5239.6293     -31888.458      22233.781     -6064.2115      516.1264       2613.252      -15920.068      9.2199078      9.22           9.22           783.76962    
        90   0             -486.43484     -4123.7626     -29904.93       22689.126     -5155.4839      1184.0127      1358.7851     -16236.288      9.2199078      9.22           9.22           783.76962    
        91   0             -486.62863     -3262.5104     -28291.235      22926.294     -4422.5898      1741.0442      377.40288     -15984.494      9.2199078      9.22           9.22           783.76962    
        92   0             -486.81179     -2686.8701     -27020.563      22990.029     -4030.0761      2095.3816     -504.21867     -15443.105      9.2199078      9.22           9.22           783.76962    
        93   0             -486.96318     -2339.6634     -26035.648      22949.453     -3932.7959      2208.4097     -1282.4859     -14790.961      9.2199078      9.22           9.22           783.76962    
        94   0             -487.09318     -2031.768      -25077.218      22886.217     -3904.3029      2237.6393     -1976.1894     -14069.926      9.2199078      9.22           9.22           783.76962    
        95   0             -487.20752     -1724.5191     -24090.098      22807.148     -3890.6077      2210.9454     -2381.0552     -13316.09       9.2199078      9.22           9.22           783.76962    
        96   0             -487.30949     -1419.2108     -23067.981      22701.672     -3891.3237      2149.4742     -2472.2727     -12555.229      9.2199078      9.22           9.22           783.76962    
        97   0             -487.40078     -1122.6017     -22018.178      22561.109     -3910.7355      2076.9437     -2194.1125     -11804.845      9.2199078      9.22           9.22           783.76962    
        98   0             -487.48232     -837.01823     -20930.776      22388.856     -3969.134       1973.607      -1789.4172     -11070.367      9.2199078      9.22           9.22           783.76962    
        99   0             -487.55498     -558.21064     -19802.103      22192.592     -4065.1207      1846.6149     -1266.5064     -10364.044      9.2199078      9.22           9.22           783.76962    
       100   0             -487.61991     -282.872       -18630.01       21978.599     -4197.2058      1694.5991     -669.38902     -9695.4562      9.2199078      9.22           9.22           783.76962    
       101   0             -487.67829     -9.9589392     -17417.845      21748.146     -4360.1777      1500.5658     -44.277965     -9072.054       9.2199078      9.22           9.22           783.76962    
       102   0             -487.73072      265.99399     -16152.872      21491.92      -4541.0665      1243.0493      384.25153     -8494.725       9.2199078      9.22           9.22           783.76962    
       103   0             -487.78306      588.55487     -14662.241      21172.88      -4744.9745      882.45506      848.89004     -7861.4082      9.2199078      9.22           9.22           783.76962    
       104   0             -487.83134      1012.7591     -12987.388      20769.805     -4744.1391      371.33406      1180.2468     -7208.9265      9.2199078      9.22           9.22           783.76962    
       105   0             -487.86766      1097.1919     -11833.849      19992.332     -4866.9076     -357.19765      1502.2657     -6424.6501      9.2199078      9.22           9.22           783.76962    
       106   0             -487.87722      1996.2214     -10924.805      20216.455     -3302.9861     -438.50163      1693.6206     -6242.8381      9.2199078      9.22           9.22           783.76962    
       107   0             -487.89569      2426.7952     -10176.575      19588.369     -2131.4077     -837.50388      1601.0537     -5743.4693      9.2199078      9.22           9.22           783.76962    
       108   0             -487.90798      1587.9544     -10717.249      18638.057     -3156.9451     -1201.4692      1555.5451     -5502.1408      9.2199078      9.22           9.22           783.76962    
       109   0             -487.92512      1499.6972     -11108.595      17528.317     -1920.6307     -1464.203       1653.4267     -4897.7407      9.2199078      9.22           9.22           783.76962    
       110   0             -487.93089      2243.6485     -10853.324      17790.305     -206.03509     -1186.273       1682.2971     -4787.9773      9.2199078      9.22           9.22           783.76962    
       111   0             -487.94404      2489.992      -11655.726      16863.395      2262.3064     -920.41569      1610.2858     -4349.9458      9.2199078      9.22           9.22           783.76962    
       112   0             -487.95934      1124.0191     -13377.377      14927.111      1822.3238     -1107.9484      1538.9221     -3967.2387      9.2199078      9.22           9.22           783.76962    
       113   0             -487.97181      557.95219     -14885.666      13262.043      3297.4795     -1001.1634      1522.0679     -3520.9498      9.2199078      9.22           9.22           783.76962    
       114   0             -487.98263      1429.3171     -14834.66       13348.042      5774.5693     -783.67132      1536.7462     -3346.8481      9.2199078      9.22           9.22           783.76962    
       115   0             -487.99287      1374.6876     -16060.971      11958.539      8226.4954     -669.13818      1445.1256     -2975.673       9.2199078      9.22           9.22           783.76962    
       116   0             -488.00651     -203.94644     -18205.986      9564.0389      8030.1081     -674.6007       1304.5177     -2748.0098      9.2199078      9.22           9.22           783.76962    
       117   0             -488.01622     -1044.8289     -20071.704      7488.8979      9448.3192     -435.01384      1129.9668     -2522.976       9.2199078      9.22           9.22           783.76962    
       118   0             -488.02575     -376.78577     -20278.219      7370.3854      11777.476     -288.83573      1032.0046     -2471.348       9.2199078      9.22           9.22           783.76962    
       119   0             -488.03404     -763.22448     -21936.103      5687.0472      13959.382     -16.120493      844.53688     -2556.5673      9.2199078      9.22           9.22           783.76962    
       120   0             -488.04669     -2796.4251     -24795.35       2616.6648      13789.409      292.85809      703.54084     -3226.7424      9.2199078      9.22           9.22           783.76962    
       121   0             -488.06033     -4177.6695     -27353.179     -85.154513      14905.325      538.38501      524.2833      -5545.292       9.2199078      9.22           9.22           783.76962    
       122   0             -488.11031     -4567.5735     -29398.284     -2056.3737      17751.937      625.28596      306.10915     -11201.76       9.2199078      9.22           9.22           783.76962    
       123   0             -488.19758     -5310.8626     -31381.292     -4103.677       19552.381      614.33605      113.58212     -20562.647      9.2199078      9.22           9.22           783.76962    
       124   0             -488.3512      -6290.9374     -33384.104     -6204.3297      20715.622      654.9686      -182.76407     -32206.959      9.2199078      9.22           9.22           783.76962    
       125   0             -488.58205     -7270.5495     -35289.988     -8071.8822      21550.221      719.48049     -556.44799     -44520.444      9.2199078      9.22           9.22           783.76962    
       126   0             -488.88709     -8021.6739     -36967.724     -9421.6764      22324.379      800.24703     -931.30956     -55785.038      9.2199078      9.22           9.22           783.76962    
       127   0             -489.25783     -8356.5737     -38370.227     -10035.813      23336.32       866.41397     -1298.0873     -64533.105      9.2199078      9.22           9.22           783.76962    
       128   0             -489.68387     -8269.8359     -39651.058     -9883.2994      24724.85       897.16593     -1705.9384     -69639.518      9.2199078      9.22           9.22           783.76962    
       129   0             -490.14103     -7911.5257     -41054.38      -9082.6537      26402.456      908.20408     -2220.1239     -70294.222      9.2199078      9.22           9.22           783.76962    
       130   0             -490.57794     -7454.595      -42693.495     -7832.7125      28162.422      923.7792      -2887.3145     -66478.449      9.2199078      9.22           9.22           783.76962    
       131   0             -490.96388     -7028.9449     -44626.683     -6366.5006      29906.349      962.3556      -3774.4937     -59262.532      9.2199078      9.22           9.22           783.76962    
       132   0             -491.29225     -6741.641      -46929.766     -4920.2268      31625.069      1034.4782     -5025.245      -50050.322      9.2199078      9.22           9.22           783.76962    
       133   0             -491.55663     -6677.9639     -49464.983     -3791.8026      33222.894      1142.6509     -6763.7279     -40983.828      9.2199078      9.22           9.22           783.76962    
       134   0             -491.80326     -6798.9619     -52223.816     -3003.9266      34830.857      1365.3344     -9168.6997     -33119.21       9.2199078      9.22           9.22           783.76962    
       135   0             -492.07515     -6926.3857     -54864.67      -2492.2207      36577.734      1796.2506     -11712.113     -27432.885      9.2199078      9.22           9.22           783.76962    
       136   0             -492.33495     -6844.278      -56548.782     -2174.1514      38190.099      2246.8807     -12627.815     -24398.83       9.2199078      9.22           9.22           783.76962    
       137   0             -492.60319     -6542.5738     -57518.96      -1929.4377      39820.676      2596.8525     -11487.178     -22627.43       9.2199078      9.22           9.22           783.76962    
       138   0             -492.8873      -6032.7877     -57921.341     -1731.9583      41554.936      2804.9604     -8152.9375     -21571.493      9.2199078      9.22           9.22           783.76962    
       139   0             -493.18219     -5346.4154     -57836.89      -1594.2586      43391.903      2872.0419     -3127.815      -21092.101      9.2199078      9.22           9.22           783.76962    
       140   0             -493.46388     -4578.9198     -57378.09      -1541.6907      45183.021      2862.3305      1992.806      -21177.956      9.2199078      9.22           9.22           783.76962    
       141   0             -493.72307     -3797.9527     -56662.903     -1573.4174      46842.462      2839.294       5936.5529     -21737.444      9.2199078      9.22           9.22           783.76962    
       142   0             -493.96445     -3014.5412     -55758.773     -1682.5455      48397.695      2803.397       8276.0758     -22718.126      9.2199078      9.22           9.22           783.76962    
       143   0             -494.17448     -2292.4364     -54795.603     -1856.4812      49774.775      2730.5686      9039.4634     -24019.888      9.2199078      9.22           9.22           783.76962    
       144   0             -494.37146     -1578.5574     -53748.51      -2096.8139      51109.652      2593.7632      8829.9293     -25698.771      9.2199078      9.22           9.22           783.76962    
       145   0             -494.57437     -812.85761     -52550.616     -2431.2473      52543.29       2357.4555      8191.6969     -27920.698      9.2199078      9.22           9.22           783.76962    
       146   0             -494.78548     -2.3540782     -51212.573     -2876.7995      54082.31       2015.7171      7844.9799     -30683.991      9.2199078      9.22           9.22           783.76962    
       147   0             -494.9855       769.85519     -49850.884     -3414.5315      55574.981      1652.0342      8189.428      -33587.937      9.2199078      9.22           9.22           783.76962    
       148   0             -495.17621      1511.1547     -48437.816     -4089.8401      57061.12       1321.4862      8918.5388     -36618.933      9.2199078      9.22           9.22           783.76962    
       149   0             -495.36875      2233.4451     -46932.567     -5006.531       58639.433      1055.9229      9502.3791     -40046.376      9.2199078      9.22           9.22           783.76962    
       150   0             -495.5292       2752.2606     -45721.988     -5919.5658      59898.336      957.29857      9192.2824     -42896.46       9.2199078      9.22           9.22           783.76962    
       151   0             -495.66768      3131.3751     -44705.522     -6677.0362      60776.684      1032.0026      7742.3552     -44716.714      9.2199078      9.22           9.22           783.76962    
       152   0             -495.7983       3416.9505     -43751.055     -7415.8964      61417.803      1300.4092      5062.8817     -46010.011      9.2199078      9.22           9.22           783.76962    
       153   0             -495.93945      3655.149      -42738.353     -8249.975       61953.775      1683.1296      978.46        -47157.921      9.2199078      9.22           9.22           783.76962    
       154   0             -496.06052      3843.0657     -41908.58      -8903.5112      62341.289      1909.1723     -2175.688      -48086.533      9.2199078      9.22           9.22           783.76962    
       155   0             -496.16575      4083.6881     -41061.761     -9365.2297      62678.055      1963.0029     -3714.327      -48781.338      9.2199078      9.22           9.22           783.76962    
       156   0             -496.26153      4359.3938     -40071.174     -9828.1028      62977.458      1875.6444     -3955.176      -49374.448      9.2199078      9.22           9.22           783.76962    
       157   0             -496.34914      4634.6477     -38857.91      -10452.225      63214.078      1674.8737     -3261.3278     -49947.192      9.2199078      9.22           9.22           783.76962    
       158   0             -496.43246      4862.008      -37281.072     -11454.034      63321.13       1380.8579     -1983.6551     -50611.285      9.2199078      9.22           9.22           783.76962    
       159   0             -496.51014      4974.0863     -35312.246     -12946.032      63180.537      1084.0602     -867.98057     -51422.091      9.2199078      9.22           9.22           783.76962    
       160   0             -496.58731      5101.271      -32789.737     -14735.17       62828.72       852.02641     -439.82313     -52353.414      9.2199078      9.22           9.22           783.76962    
       161   0             -496.66329      5380.8807     -29672.567     -16544.038      62359.248      666.48811     -270.39971     -53299.714      9.2199078      9.22           9.22           783.76962    
       162   0             -496.73657      5713.3195     -26152.858     -18431.023      61723.84       561.12213     -222.00032     -54372.02       9.2199078      9.22           9.22           783.76962    
       163   0             -496.80402      6334.2732     -22342.235     -19788.492      61133.547      411.67777     -107.42049     -55515.575      9.2199078      9.22           9.22           783.76962    
       164   0             -496.86232      6067.2089     -19006.476     -22495.124      59703.227      402.68076     -199.00375     -57515.964      9.2199078      9.22           9.22           783.76962    
       165   0             -496.91851      7814.5416     -14618.335     -21720.895      59782.855      276.06781     -55.207848     -58884.583      9.2199078      9.22           9.22           783.76962    
       166   0             -496.97899      8020.5678     -11089.232     -23499.503      58650.438      172.12511      1.4188552     -61877.753      9.2199078      9.22           9.22           783.76962    
       167   0             -496.99976      6964.7756     -10449.282     -25949.783      57293.392      184.80345     -67.292603     -64563.349      9.2199078      9.22           9.22           783.76962    
       168   0             -497.05426      7177.0593     -7549.4606     -27160.407      56241.046      174.93955     -86.442834     -70585.426      9.2199078      9.22           9.22           783.76962    
       169   0             -497.09254      9000.9203     -4666.6795     -25285.976      56955.417      112.60579      17.790714     -77056.658      9.2199078      9.22           9.22           783.76962    
       170   0             -497.14897      9542.7097     -2176.1545     -25827.737      56632.02       69.113319      49.848358     -86187.025      9.2199078      9.22           9.22           783.76962    
       171   0             -497.2634       8481.2227     -594.745       -29162.961      55201.374      67.834577      0.69285427    -97524.995      9.2199078      9.22           9.22           783.76962    
       172   0             -497.36526      8675.7949      1151.8314     -30398.884      55274.438      89.310983     -20.104678     -109597.84      9.2199078      9.22           9.22           783.76962    
       173   0             -497.49095      9460.0242      3052.9313     -30726.089      56053.23       96.22382      -26.122705     -121510.86      9.2199078      9.22           9.22           783.76962    
       174   0             -497.63883      10449.782      5023.8571     -30824.466      57149.955      85.006223     -24.798829     -132587.49      9.2199078      9.22           9.22           783.76962    
       175   0             -497.8092       11603.806      7096.884      -30777.072      58491.606      70.387293     -23.840074     -142333.99      9.2199078      9.22           9.22           783.76962    
       176   0             -498.00279      13018.382      9359.4638     -30444.217      60139.9        47.222264     -23.967892     -150349.65      9.2199078      9.22           9.22           783.76962    
       177   0             -498.20294      14614.422      11697.38      -29812.174      61958.06       16.129781     -25.380639     -155680.66      9.2199078      9.22           9.22           783.76962    
       178   0             -498.38946      16211.393      13956.323     -29022.813      63700.67      -19.080931     -27.829164     -158017.43      9.2199078      9.22           9.22           783.76962    
       179   0             -498.55223      17684.31       16085.506     -28230.065      65197.49      -55.05205      -30.964541     -157892.03      9.2199078      9.22           9.22           783.76962    
       180   0             -498.69619      19021.228      18196.56      -27528.904      66396.029     -92.210172     -34.7239       -156000.54      9.2199078      9.22           9.22           783.76962    
       181   0             -498.82888      20224.565      20432.482     -27000.502      67241.714     -133.06529     -39.288009     -152815.08      9.2199078      9.22           9.22           783.76962    
       182   0             -498.96016      21310.751      22982.463     -26729.165      67678.956     -182.90288     -45.147264     -148648.18      9.2199078      9.22           9.22           783.76962    
       183   0             -499.10198      22310.009      26084.675     -26822.251      67667.604     -250.60392     -53.185477     -143756.04      9.2199078      9.22           9.22           783.76962    
       184   0             -499.26621      23258.471      29941.592     -27390.04       67223.86      -345.36687     -64.479326     -138430.72      9.2199078      9.22           9.22           783.76962    
       185   0             -499.44862      24141.396      34264.781     -28336.575      66495.981     -453.78549     -78.367242     -133184.73      9.2199078      9.22           9.22           783.76962    
       186   0             -499.641        24972.085      38641.307     -29344.37       65619.317     -537.75863     -92.383403     -128121.99      9.2199078      9.22           9.22           783.76962    
       187   0             -499.84731      25808.855      43048.999     -30191.38       64568.947     -559.11544     -103.97511     -122941.07      9.2199078      9.22           9.22           783.76962    
       188   0             -500.06532      26654.682      47428.943     -30740.702      63275.805     -491.22602     -109.75484     -117552.29      9.2199078      9.22           9.22           783.76962    
       189   0             -500.2885       27478.015      51710.99      -30970.711      61693.765     -340.2864      -107.00096     -112010.79      9.2199078      9.22           9.22           783.76962    
       190   0             -500.51229      28260.67       55887.616     -30935.234      59829.627     -135.45227     -94.802429     -106364.38      9.2199078      9.22           9.22           783.76962    
       191   0             -500.72675      28977.151      59828.73      -30699.827      57802.549      82.745153     -74.878252     -100832.94      9.2199078      9.22           9.22           783.76962    
       192   0             -500.93117      29640.25       63548.15      -30299.688      55672.289      280.69606     -50.506343     -95423.882      9.2199078      9.22           9.22           783.76962    
       193   0             -501.12818      30266.692      67110.059     -29739.285      53429.301      429.44739     -25.404005     -90061.004      9.2199078      9.22           9.22           783.76962    
       194   0             -501.3177       30857.763      70532.918     -29020.374      51060.744      508.33214     -3.4584848     -84746.763      9.2199078      9.22           9.22           783.76962    
       195   0             -501.49503      31398.216      73754.081     -28167.42       48607.987      517.02439      12.131281     -79629.767      9.2199078      9.22           9.22           783.76962    
       196   0             -501.65843      31884.352      76757.855     -27200.77       46095.97       476.35752      20.520672     -74790.508      9.2199078      9.22           9.22           783.76962    
       197   0             -501.80898      32319.496      79571.357     -26127.532      43514.663      409.98437      22.619303     -70228.078      9.2199078      9.22           9.22           783.76962    
       198   0             -501.94768      32705.205      82214.158     -24949.842      40851.298      335.34767      20.075256     -65941.337      9.2199078      9.22           9.22           783.76962    
       199   0             -502.07545      33040.278      84701.098     -23667.237      38086.972      262.95945      14.775939     -61928.226      9.2199078      9.22           9.22           783.76962    
       200   0             -502.19314      33320.571      87043.496     -22277.6        35195.818      198.24774      8.4953191     -58187.103      9.2199078      9.22           9.22           783.76962    
       201   0             -502.30142      33538.309      89250.033     -20787.33       32152.223      143.89321      2.7566962     -54688.685      9.2199078      9.22           9.22           783.76962    
       202   0             -502.39887      33690.969      91336.591     -19369.602      29105.917      102.63892     -1.1084279     -50807.238      9.2199078      9.22           9.22           783.76962    
       203   0             -502.47742      33829.987      93363.816     -18204.926      26331.071      71.497226     -5.1758272     -45498.099      9.2199078      9.22           9.22           783.76962    
       204   0             -502.5303       34080.299      95586.246     -16976.344      23630.997      37.698787     -9.3516044     -38289.752      9.2199078      9.22           9.22           783.76962    
       205   0             -502.55286      34269.674      96902.325     -15520.956      21427.655      10.246256      0.052340146   -36029.385      9.2199078      9.22           9.22           783.76962    
       206   0             -502.56192      34024.667      97814.103     -14996.201      19256.098      0.14325923    -12.179317     -34586.19       9.2199078      9.22           9.22           783.76962    
       207   0             -502.5677       33527.744      98449.59      -14801.557      16935.2       -9.0564962     -1.0220863     -34251.765      9.2199078      9.22           9.22           783.76962    
       208   0             -502.56981      33833.351      98534.265     -13949.155      16914.942     -11.336864      3.7006699     -35408.991      9.2199078      9.22           9.22           783.76962    
       209   0             -502.57187      32944.127      98567.407     -15105.13       15370.104     -9.1857942      2.3098876     -36555.621      9.2199078      9.22           9.22           783.76962    
       210   0             -502.5768       31836.206      98080.14      -16008.559      13437.037      4.3738711     -1.2626464     -38612.507      9.2199078      9.22           9.22           783.76962    
       211   0             -502.5772       31999.713      98022.492     -15713.043      13689.691      4.8088452      4.1559839     -38831.927      9.2199078      9.22           9.22           783.76962    
       212   0             -502.57761      31747.34       98026.739     -16034.016      13249.299      3.9604106      7.0422477     -38904.594      9.2199078      9.22           9.22           783.76962    
       213   0             -502.57806      31587.242      97927.763     -16104.93       12938.894      0.027222      -9.0577887     -39142.018      9.2199078      9.22           9.22           783.76962    
       214   0             -502.5784       31717.788      97760.555     -15792.029      13184.838     -2.9619397     -9.6242152     -39407.809      9.2199078      9.22           9.22           783.76962    
       215   0             -502.57897      31373.924      97646.216     -16231.94       12707.497     -5.951726       9.4684757     -39494.889      9.2199078      9.22           9.22           783.76962    
       216   0             -502.57945      31187.526      97689.579     -16494.914      12367.914     -5.5961715      2.6810982     -39357.452      9.2199078      9.22           9.22           783.76962    
       217   0             -502.57999      31309.671      97611.092     -16349.115      12667.035     -2.6012802     -8.9187025     -38966.726      9.2199078      9.22           9.22           783.76962    
       218   0             -502.58038      31123.409      97606.201     -16646.646      12410.672      1.9437444      0.071658116   -38608.83       9.2199078      9.22           9.22           783.76962    
       219   0             -502.58057      31122.296      97679.752     -16597.953      12285.089      2.666535       3.0188933     -38642.897      9.2199078      9.22           9.22           783.76962    
       220   0             -502.58069      31193.501      97765.817     -16506.376      12321.061      0.70201226    -2.5319323     -38581.872      9.2199078      9.22           9.22           783.76962    
       221   0             -502.58079      31114.405      97945.443     -16771.904      12169.676     -1.4050919     -3.7673951     -38448.552      9.2199078      9.22           9.22           783.76962    
       222   0             -502.58087      31139.097      98054.36      -16816.965      12179.895     -2.1876109     -0.033910066   -38478.158      9.2199078      9.22           9.22           783.76962    
       223   0             -502.581        31165.58       98034.533     -16797.593      12259.801     -0.6449471      8.32803       -38419.959      9.2199078      9.22           9.22           783.76962    
       224   0             -502.58106      31114.364      98034.721     -16886.265      12194.637      0.62253811     1.2293412     -38412.477      9.2199078      9.22           9.22           783.76962    
       225   0             -502.58123      31154.194      98078.72      -16828.469      12212.331      2.412092      -18.877603     -38705.038      9.2199078      9.22           9.22           783.76962    
       226   0             -502.5814       31146.622      98091.444     -16806.052      12154.473     -0.49899352     12.526224     -38716.925      9.2199078      9.22           9.22           783.76962    
       227   0             -502.58151      31109.463      98028.276     -16805.871      12105.983     -0.69029645     18.901716     -38606.033      9.2199078      9.22           9.22           783.76962    
       228   0             -502.58163      31106.489      97821.555     -16650.217      12148.129      2.6978726     -13.353029     -38491.307      9.2199078      9.22           9.22           783.76962    
       229   0             -502.58166      31072.718      97751.803     -16613.764      12080.116      1.30086       -5.9771779     -38456.546      9.2199078      9.22           9.22           783.76962    
       230   0             -502.5817       31087.069      97695.38      -16489.06       12054.888      0.22444695     7.7849344     -38458.472      9.2199078      9.22           9.22           783.76962    
       231   0             -502.58171      31102.682      97698.991     -16435.643      12044.699      1.901792      -0.66946053    -38433.446      9.2199078      9.22           9.22           783.76962    
       232   0             -502.58171      31096.193      97712.017     -16433.166      12009.728      1.3529083     -5.6524124     -38385.259      9.2199078      9.22           9.22           783.76962    
       233   0             -502.58172      31105.147      97718.22      -16415.301      12012.52      -0.25051239    -0.69128434    -38373.181      9.2199078      9.22           9.22           783.76962    
       234   0             -502.58172      31106.424      97720.555     -16411.023      12009.741      0.19569023     5.2335983     -38373.475      9.2199078      9.22           9.22           783.76962    
       235   0             -502.58172      31109.004      97717.26      -16406.058      12015.809      0.94195045     3.205926      -38380.83       9.2199078      9.22           9.22           783.76962    
       236   0             -502.58172      31118.825      97710.912     -16391.829      12037.391     -0.46675912    -5.6774586     -38397.368      9.2199078      9.22           9.22           783.76962    
       237   0             -502.58172      31114.051      97712.972     -16401.683      12030.863     -0.854758      -2.0352764     -38395.023      9.2199078      9.22           9.22           783.76962    
       238   0             -502.58172      31121.799      97717.054     -16392.304      12040.648     -0.20760847     5.0958904     -38396.076      9.2199078      9.22           9.22           783.76962    
       239   0             -502.58172      31129.629      97721.051     -16380.99       12048.825      0.13550792     0.84161351    -38399.513      9.2199078      9.22           9.22           783.76962    
       240   0             -502.58173      31124.881      97719.281     -16387.063      12042.426     -0.56299202    -1.6492976     -38398.008      9.2199078      9.22           9.22           783.76962    
       241   0             -502.58173      31130.543      97710.193     -16374.162      12055.598     -1.0472537     -1.2226825     -38403.229      9.2199078      9.22           9.22           783.76962    
       242   0             -502.58173      31133.807      97704.373     -16365.869      12062.917      0.45628565     1.9660577     -38401.938      9.2199078      9.22           9.22           783.76962    
       243   0             -502.58173      31131.634      97704.884     -16368.613      12058.63       0.29945027     0.72751321    -38398.902      9.2199078      9.22           9.22           783.76962    
       244   0             -502.58173      31134.425      97706.538     -16364.145      12060.881     -0.4718448     -1.6492248     -38398.215      9.2199078      9.22           9.22           783.76962    
       245   0             -502.58173      31135.526      97706.719     -16361.861      12061.72       0.10343789     0.52685475    -38395.888      9.2199078      9.22           9.22           783.76962    
       246   0             -502.58173      31136.074      97706.423     -16360.076      12061.874      0.31232588     1.4111145     -38393.496      9.2199078      9.22           9.22           783.76962    
       247   0             -502.58173      31137.804      97704.621     -16356.188      12064.98      -0.31181887    -1.1693775     -38389.236      9.2199078      9.22           9.22           783.76962    
       248   0             -502.58173      31137.801      97703.746     -16356.209      12065.865      0.082596628   -0.82865885    -38385.034      9.2199078      9.22           9.22           783.76962    
       249   0             -502.58173      31139.349      97703.815     -16354.307      12068.541      0.50358032     0.90787644    -38383.438      9.2199078      9.22           9.22           783.76962    
       250   0             -502.58173      31140.006      97704.793     -16354.298      12069.522     -0.31305005     0.1955279     -38383.449      9.2199078      9.22           9.22           783.76962    
       251   0             -502.58173      31139.926      97705.447     -16355.269      12069.6       -0.24582121    -0.52830916    -38383.591      9.2199078      9.22           9.22           783.76962    
       252   0             -502.58173      31140.902      97705.628     -16354.044      12071.123      0.28397953    -0.30193057    -38385.591      9.2199078      9.22           9.22           783.76962    
       253   0             -502.58173      31140.683      97705.258     -16354.411      12071.203      0.11596442     0.2447953     -38386.285      9.2199078      9.22           9.22           783.76962    
       254   0             -502.58173      31140.605      97704.729     -16354.513      12071.599     -0.14319481     0.2384376     -38386.533      9.2199078      9.22           9.22           783.76962    
       255   0             -502.58173      31140.286      97704.107     -16354.702      12071.453     -0.10279765    -0.28536195    -38387.113      9.2199078      9.22           9.22           783.76962    
       256   0             -502.58173      31138.846      97703.628     -16356.106      12069.018      0.25802918    -0.20432681    -38387.139      9.2199078      9.22           9.22           783.76962    
       257   0             -502.58173      31139.067      97703.124     -16354.696      12068.772      0.13475004     0.025425932   -38388.425      9.2199078      9.22           9.22           783.76962    
       258   0             -502.58173      31138.484      97702.951     -16354.401      12066.9       -0.41083472     0.035814563   -38389.029      9.2199078      9.22           9.22           783.76962    
       259   0             -502.58173      31137.852      97702.796     -16354.479      12065.239     -0.12822108     0.13321962    -38388.294      9.2199078      9.22           9.22           783.76962    
       260   0             -502.58173      31138.356      97702.753     -16353.211      12065.525      0.069825988    0.060867268   -38388.421      9.2199078      9.22           9.22           783.76962    
       261   0             -502.58173      31137.97       97703.007     -16353.622      12064.524     -0.081668635   -0.20045534    -38387.769      9.2199078      9.22           9.22           783.76962    
       262   0             -502.58173      31137.603      97703.087     -16354.186      12063.908     -0.032321121    0.041673942   -38387.107      9.2199078      9.22           9.22           783.76962    
       263   0             -502.58173      31137.685      97703.155     -16353.908      12063.809      0.021660841    0.21414251    -38387.444      9.2199078      9.22           9.22           783.76962    
       264   0             -502.58173      31137.331      97702.953     -16354.429      12063.469     -0.089496949   -0.091195967   -38387.367      9.2199078      9.22           9.22           783.76962    
       265   0             -502.58173      31137.485      97702.646     -16354.362      12064.171     -0.016414055   -0.11308679    -38387.12       9.2199078      9.22           9.22           783.76962    
       266   0             -502.58173      31137.376      97702.695     -16354.663      12064.097      0.099418648    0.027598695   -38387.015      9.2199078      9.22           9.22           783.76962    
       267   0             -502.58173      31137.225      97702.84      -16354.985      12063.82       0.027057117    0.00069247297 -38386.754      9.2199078      9.22           9.22           783.76962    
       268   0             -502.58173      31137.397      97702.872     -16354.798      12064.118     -0.021891161   -0.019395753   -38386.766      9.2199078      9.22           9.22           783.76962    
       269   0             -502.58173      31137.262      97702.91      -16355.14       12064.017      0.029452009    0.033803421   -38386.958      9.2199078      9.22           9.22           783.76962    
       270   0             -502.58173      31137.095      97702.838     -16355.454      12063.901      0.031864922   -0.012960057   -38386.938      9.2199078      9.22           9.22           783.76962    
       271   0             -502.58173      31137.252      97702.757     -16355.233      12064.232      0.0064133153  -0.04397304    -38386.963      9.2199078      9.22           9.22           783.76962    
       272   0             -502.58173      31137.197      97702.83      -16355.349      12064.109     -0.025868987    0.012475446   -38386.627      9.2199078      9.22           9.22           783.76962    
       273   0             -502.58173      31137.121      97702.907     -16355.442      12063.897     -0.024683465    0.033983409   -38386.322      9.2199078      9.22           9.22           783.76962    
       274   0             -502.58173      31137.195      97702.915     -16355.282      12063.951     -0.019106044    0.010410635   -38386.28       9.2199078      9.22           9.22           783.76962    
       275   0             -502.58173      31137.115      97702.881     -16355.375      12063.839     -0.014766725   -0.027098697   -38386.269      9.2199078      9.22           9.22           783.76962    
       276   0             -502.58173      31137.057      97702.821     -16355.445      12063.795     -0.0073806292  -0.0061808457  -38386.304      9.2199078      9.22           9.22           783.76962    
       277   0             -502.58173      31137.053      97702.804     -16355.421      12063.777     -0.0049840314   0.023992762   -38386.38       9.2199078      9.22           9.22           783.76962    
       278   0             -502.58173      31136.975      97702.86      -16355.501      12063.565     -0.0057152359   0.012933317   -38386.414      9.2199078      9.22           9.22           783.76962    
       279   0             -502.58173      31136.989      97702.882     -16355.456      12063.542      0.0026932774  -0.0039688856  -38386.503      9.2199078      9.22           9.22           783.76962    
       280   0             -502.58173      31136.955      97702.883     -16355.499      12063.479      0.010244724   -0.0067077517  -38386.571      9.2199078      9.22           9.22           783.76962    
       281   0             -502.58173      31136.927      97702.853     -16355.53       12063.459      0.002855396    0.0035719083  -38386.61       9.2199078      9.22           9.22           783.76962    
       282   0             -502.58173      31136.952      97702.821     -16355.483      12063.517     -2.2373164e-06  0.0065094741  -38386.664      9.2199078      9.22           9.22           783.76962    
       283   0             -502.58173      31136.914      97702.802     -16355.531      12063.471      0.0049572292  -0.00039660931 -38386.683      9.2199078      9.22           9.22           783.76962    
       284   0             -502.58173      31136.899      97702.802     -16355.529      12063.423      0.0077626686  -0.0091471868  -38386.684      9.2199078      9.22           9.22           783.76962    
       285   0             -502.58173      31136.93       97702.797     -16355.461      12063.455      0.0058559387  -0.0079793285  -38386.7        9.2199078      9.22           9.22           783.76962    
       286   0             -502.58173      31136.925      97702.799     -16355.462      12063.438     -0.00070844631  0.0040813325  -38386.678      9.2199078      9.22           9.22           783.76962    
       287   0             -502.58173      31136.927      97702.802     -16355.457      12063.437     -0.0016856077   0.0020251954  -38386.665      9.2199078      9.22           9.22           783.76962    
       288   0             -502.58173      31136.94       97702.802     -16355.438      12063.454     -0.0011475107  -0.0028318617  -38386.657      9.2199078      9.22           9.22           783.76962    
       289   0             -502.58173      31136.943      97702.805     -16355.433      12063.457     -0.0010574389  -0.0029819748  -38386.642      9.2199078      9.22           9.22           783.76962    
       290   0             -502.58173      31136.957      97702.805     -16355.412      12063.478     -0.0023629404   0.00038108504 -38386.64       9.2199078      9.22           9.22           783.76962    
       291   0             -502.58173      31136.964      97702.803     -16355.407      12063.496     -0.0046799552   0.0041872451  -38386.619      9.2199078      9.22           9.22           783.76962    
       292   0             -502.58173      31136.968      97702.804     -16355.41       12063.508     -0.0040339937   0.0021540864  -38386.6        9.2199078      9.22           9.22           783.76962    
       293   0             -502.58173      31136.976      97702.805     -16355.401      12063.525     -0.0016138749   0.00038568251 -38386.601      9.2199078      9.22           9.22           783.76962    
       294   0             -502.58173      31136.974      97702.803     -16355.406      12063.526      0.00023016113  4.8834079e-06 -38386.599      9.2199078      9.22           9.22           783.76962    
       295   0             -502.58173      31136.976      97702.8       -16355.404      12063.532     -0.00027935917  0.00041252459 -38386.603      9.2199078      9.22           9.22           783.76962    
       296   0             -502.58173      31136.978      97702.798     -16355.401      12063.535     -0.00054548238  0.00065063426 -38386.604      9.2199078      9.22           9.22           783.76962    
       297   0             -502.58173      31136.977      97702.798     -16355.402      12063.535      5.0965406e-05  0.00042804299 -38386.601      9.2199078      9.22           9.22           783.76962    
       298   0             -502.58173      31136.979      97702.798     -16355.398      12063.538      0.00069015156 -0.00043804784 -38386.599      9.2199078      9.22           9.22           783.76962    
       299   0             -502.58173      31136.979      97702.799     -16355.398      12063.535      0.00073388852 -0.00093940076 -38386.597      9.2199078      9.22           9.22           783.76962    
       300   0             -502.58173      31136.979      97702.798     -16355.395      12063.534     -6.4577845e-05  4.3408482e-05 -38386.596      9.2199078      9.22           9.22           783.76962    
       301   0             -502.58173      31136.982      97702.796     -16355.388      12063.538      0.00026861168  0.00039126265 -38386.596      9.2199078      9.22           9.22           783.76962    
       302   0             -502.58173      31136.98       97702.794     -16355.389      12063.535      0.001143121   -0.00043330766 -38386.59       9.2199078      9.22           9.22           783.76962    
       303   0             -502.58173      31136.98       97702.793     -16355.389      12063.534     -0.00014950714 -0.0014405134  -38386.586      9.2199078      9.22           9.22           783.76962    
       304   0             -502.58173      31136.98       97702.793     -16355.387      12063.535     -0.00035153228 -0.00038620162 -38386.589      9.2199078      9.22           9.22           783.76962    
       305   0             -502.58173      31136.979      97702.793     -16355.389      12063.533     -5.6012204e-05  0.0014706075  -38386.592      9.2199078      9.22           9.22           783.76962    
       306   0             -502.58173      31136.98       97702.793     -16355.388      12063.534     -0.00046251163 -8.2565962e-05 -38386.594      9.2199078      9.22           9.22           783.76962    
       307   0             -502.58173      31136.979      97702.793     -16355.389      12063.533     -0.00039303666 -0.00070343519 -38386.596      9.2199078      9.22           9.22           783.76962    
       308   0             -502.58173      31136.978      97702.794     -16355.391      12063.531      0.00020243112  0.0004826829  -38386.596      9.2199078      9.22           9.22           783.76962    
       309   0             -502.58173      31136.978      97702.793     -16355.39       12063.532     -0.00024131551  0.00056088144 -38386.597      9.2199078      9.22           9.22           783.76962    
       310   0             -502.58173      31136.976      97702.793     -16355.392      12063.529     -0.00057937922 -5.908534e-05  -38386.597      9.2199078      9.22           9.22           783.76962    
       311   0             -502.58173      31136.976      97702.792     -16355.392      12063.527      0.0003812613  -0.00014822799 -38386.597      9.2199078      9.22           9.22           783.76962    
       312   0             -502.58173      31136.976      97702.792     -16355.391      12063.527      0.0005267383  -3.6997377e-05 -38386.596      9.2199078      9.22           9.22           783.76962    
       313   0             -502.58173      31136.975      97702.792     -16355.392      12063.525      0.00010584015 -5.144274e-05  -38386.595      9.2199078      9.22           9.22           783.76962    
       314   0             -502.58173      31136.975      97702.792     -16355.392      12063.524     -6.7028534e-05 -5.1319192e-05 -38386.594      9.2199078      9.22           9.22           783.76962    
       315   0             -502.58173      31136.974      97702.792     -16355.392      12063.523      0.00015471187  1.0930603e-05 -38386.594      9.2199078      9.22           9.22           783.76962    
       316   0             -502.58173      31136.974      97702.792     -16355.393      12063.522      0.00025733276 -5.2652268e-05 -38386.595      9.2199078      9.22           9.22           783.76962    
       317   0             -502.58173      31136.974      97702.791     -16355.393      12063.522     -0.00013374563 -0.00018969394 -38386.595      9.2199078      9.22           9.22           783.76962    
       318   0             -502.58173      31136.973      97702.792     -16355.394      12063.522     -0.00011046871 -4.2487401e-05 -38386.594      9.2199078      9.22           9.22           783.76962    
       319   0             -502.58173      31136.973      97702.792     -16355.394      12063.522      7.6408154e-05  9.9900067e-05 -38386.595      9.2199078      9.22           9.22           783.76962    
       320   0             -502.58173      31136.973      97702.791     -16355.394      12063.522     -1.2935337e-05 -5.9314174e-05 -38386.595      9.2199078      9.22           9.22           783.76962    
       321   0             -502.58173      31136.973      97702.792     -16355.394      12063.522     -4.173714e-05  -5.9920759e-05 -38386.595      9.2199078      9.22           9.22           783.76962    
       322   0             -502.58173      31136.973      97702.792     -16355.394      12063.522     -1.6661229e-06  6.5859447e-05 -38386.595      9.2199078      9.22           9.22           783.76962    
       323   0             -502.58173      31136.973      97702.792     -16355.394      12063.522     -2.814356e-05   2.8132938e-05 -38386.595      9.2199078      9.22           9.22           783.76962    
       324   0             -502.58173      31136.973      97702.792     -16355.394      12063.522     -4.5027405e-05 -2.7566825e-05 -38386.595      9.2199078      9.22           9.22           783.76962    
       325   0             -502.58173      31136.973      97702.792     -16355.394      12063.522      1.5546341e-05  1.8943766e-05 -38386.595      9.2199078      9.22           9.22           783.76962    
       326   0             -502.58173      31136.973      97702.792     -16355.394      12063.522      2.1707957e-05  1.9704045e-05 -38386.595      9.2199078      9.22           9.22           783.76962    
       327   0             -502.58173      31136.973      97702.792     -16355.394      12063.522     -1.2843061e-05 -2.0755223e-05 -38386.594      9.2199078      9.22           9.22           783.76962    
       328   0             -502.58173      31136.973      97702.792     -16355.394      12063.522      1.0644849e-05  7.7832711e-06 -38386.594      9.2199078      9.22           9.22           783.76962    
       329   0             -502.58173      31136.973      97702.792     -16355.394      12063.522      2.3161701e-05  1.4634951e-05 -38386.594      9.2199078      9.22           9.22           783.76962    
       330   0             -502.58173      31136.973      97702.792     -16355.394      12063.522      1.2339444e-05 -1.2724385e-05 -38386.594      9.2199078      9.22           9.22           783.76962    
       331   0             -502.58173      31136.973      97702.792     -16355.394      12063.522     -1.9907282e-06 -1.3619559e-05 -38386.594      9.2199078      9.22           9.22           783.76962    
       332   0             -502.58173      31136.973      97702.792     -16355.394      12063.522     -4.0038315e-06 -1.4211796e-06 -38386.594      9.2199078      9.22           9.22           783.76962    
       333   0             -502.58173      31136.973      97702.792     -16355.394      12063.522     -9.0819131e-07  7.9250193e-06 -38386.594      9.2199078      9.22           9.22           783.76962    
       334   0             -502.58173      31136.973      97702.792     -16355.394      12063.522     -7.97259e-07   -7.3456859e-06 -38386.594      9.2199078      9.22           9.22           783.76962    
       335   0             -502.58173      31136.973      97702.792     -16355.394      12063.522      1.3214587e-06 -1.1403606e-05 -38386.594      9.2199078      9.22           9.22           783.76962    
       336   0             -502.58173      31136.973      97702.792     -16355.394      12063.522      3.2682442e-06  1.7941092e-06 -38386.595      9.2199078      9.22           9.22           783.76962    
       337   0             -502.58173      31136.973      97702.792     -16355.394      12063.522     -3.7240213e-07  9.2156512e-06 -38386.595      9.2199078      9.22           9.22           783.76962    
       338   0             -502.58173      31136.973      97702.792     -16355.394      12063.522     -1.6969814e-06  4.3007702e-06 -38386.595      9.2199078      9.22           9.22           783.76962    
       339   0             -502.58173      31136.973      97702.792     -16355.394      12063.522     -3.6893659e-07 -5.4464435e-06 -38386.594      9.2199078      9.22           9.22           783.76962    
       340   0             -502.58173      31136.973      97702.792     -16355.394      12063.522     -1.4447603e-06 -7.8603628e-07 -38386.594      9.2199078      9.22           9.22           783.76962    
       341   0             -502.58173      31136.973      97702.792     -16355.394      12063.522     -3.0597615e-06  6.6830484e-06 -38386.594      9.2199078      9.22           9.22           783.76962    
       342   0             -502.58173      31136.973      97702.792     -16355.394      12063.522     -3.8067994e-07 -2.9911465e-07 -38386.594      9.2199078      9.22           9.22           783.76962    
       343   0             -502.58173      31136.973      97702.792     -16355.394      12063.522      2.5388967e-06 -6.28589e-06   -38386.594      9.2199078      9.22           9.22           783.76962    
       344   0             -502.58173      31136.973      97702.792     -16355.394      12063.522      4.4701909e-06 -4.4443694e-06 -38386.594      9.2199078      9.22           9.22           783.76962    
       345   0             -502.58173      31136.973      97702.792     -16355.394      12063.522      2.507527e-06   2.1106569e-06 -38386.594      9.2199078      9.22           9.22           783.76962    
       346   0             -502.58173      31136.973      97702.792     -16355.394      12063.522      9.9689149e-07  1.160387e-06  -38386.594      9.2199078      9.22           9.22           783.76962    
       347   0             -502.58173      31136.973      97702.792     -16355.394      12063.522      6.2834934e-07 -6.4731999e-06 -38386.594      9.2199078      9.22           9.22           783.76962    
       348   0             -502.58173      31136.973      97702.792     -16355.394      12063.522      8.0471571e-07 -1.6994624e-06 -38386.594      9.2199078      9.22           9.22           783.76962    
       349   0             -502.58173      31136.973      97702.792     -16355.394      12063.522      7.8042241e-07  2.9366356e-06 -38386.594      9.2199078      9.22           9.22           783.76962    
       350   0             -502.58173      31136.973      97702.792     -16355.394      12063.522      1.6715534e-07 -1.8971699e-06 -38386.594      9.2199078      9.22           9.22           783.76962    
       351   0             -502.58173      31136.973      97702.792     -16355.394      12063.522      2.2174931e-08 -1.699334e-06  -38386.594      9.2199078      9.22           9.22           783.76962    
       352   0             -502.58173      31136.973      97702.792     -16355.394      12063.522      4.3119289e-07  1.4448193e-06 -38386.594      9.2199078      9.22           9.22           783.76962    
       353   0             -502.58173      31136.973      97702.792     -16355.394      12063.522      1.1804499e-06  2.4441328e-06 -38386.594      9.2199078      9.22           9.22           783.76962    
       354   0             -502.58173      31136.973      97702.792     -16355.394      12063.522      4.5557878e-07 -5.0234839e-07 -38386.594      9.2199078      9.22           9.22           783.76962    
       355   0             -502.58173      31136.973      97702.792     -16355.394      12063.522     -9.8413638e-07 -1.6560975e-06 -38386.594      9.2199078      9.22           9.22           783.76962    
       356   0             -502.58173      31136.973      97702.792     -16355.394      12063.522     -1.9254444e-06  1.4814161e-06 -38386.594      9.2199078      9.22           9.22           783.76962    
       357   0             -502.58173      31136.973      97702.792     -16355.394      12063.522     -1.6064234e-06  1.3267721e-06 -38386.594      9.2199078      9.22           9.22           783.76962    
       358   0             -502.58173      31136.973      97702.792     -16355.394      12063.522     -8.1958236e-07 -7.6409647e-07 -38386.594      9.2199078      9.22           9.22           783.76962    
       359   0             -502.58173      31136.973      97702.792     -16355.394      12063.522     -6.1660099e-07 -2.6012855e-07 -38386.594      9.2199078      9.22           9.22           783.76962    
       360   0             -502.58173      31136.973      97702.792     -16355.394      12063.522     -4.2278526e-07  4.3368754e-07 -38386.594      9.2199078      9.22           9.22           783.76962    
       361   0             -502.58173      31136.973      97702.792     -16355.394      12063.522     -1.0680679e-07  1.1889465e-07 -38386.594      9.2199078      9.22           9.22           783.76962    
[...]
       312   0             -502.5822       31114.588      97653.746     -16364.67       12054.688     -2.5237752     -0.60651297    -38384.712      9.22           9.22           9.22           783.77746    
       313   0             -502.5822       31114.588      97653.746     -16364.67       12054.688     -2.5237969     -0.60649193    -38384.712      9.22           9.22           9.22           783.77746    
       314   0             -502.5822       31114.588      97653.746     -16364.67       12054.689     -2.5237721     -0.60643019    -38384.712      9.22           9.22           9.22           783.77746    
       315   0             -502.5822       31114.588      97653.746     -16364.67       12054.688     -2.5237203     -0.60640962    -38384.712      9.22           9.22           9.22           783.77746    
       316   0             -502.5822       31114.588      97653.745     -16364.67       12054.689     -2.5236969     -0.60641986    -38384.712      9.22           9.22           9.22           783.77746    
       317   0             -502.5822       31114.588      97653.745     -16364.67       12054.688     -2.5237233     -0.60643697    -38384.712      9.22           9.22           9.22           783.77746    
       318   0             -502.5822       31114.588      97653.745     -16364.67       12054.689     -2.523759      -0.60643218    -38384.712      9.22           9.22           9.22           783.77746    
       319   0             -502.5822       31114.588      97653.745     -16364.67       12054.689     -2.5237798     -0.60643224    -38384.712      9.22           9.22           9.22           783.77746    
       320   0             -502.5822       31114.588      97653.745     -16364.67       12054.689     -2.5237816     -0.606445      -38384.712      9.22           9.22           9.22           783.77746    
       321   0             -502.5822       31114.588      97653.745     -16364.67       12054.689     -2.5237671     -0.60645358    -38384.712      9.22           9.22           9.22           783.77746    
       322   0             -502.5822       31114.588      97653.745     -16364.67       12054.689     -2.5237527     -0.60644027    -38384.712      9.22           9.22           9.22           783.77746    
       323   0             -502.5822       31114.588      97653.745     -16364.67       12054.689     -2.5237465     -0.60642515    -38384.712      9.22           9.22           9.22           783.77746    
       324   0             -502.5822       31114.588      97653.745     -16364.67       12054.689     -2.5237496     -0.60642776    -38384.712      9.22           9.22           9.22           783.77746    
       325   0             -502.5822       31114.588      97653.745     -16364.67       12054.689     -2.5237506     -0.60644014    -38384.712      9.22           9.22           9.22           783.77746    
       326   0             -502.5822       31114.588      97653.745     -16364.67       12054.689     -2.523748      -0.6064438     -38384.712      9.22           9.22           9.22           783.77746    
       327   0             -502.5822       31114.588      97653.745     -16364.67       12054.689     -2.5237471     -0.60643784    -38384.712      9.22           9.22           9.22           783.77746    
       328   0             -502.5822       31114.588      97653.745     -16364.67       12054.689     -2.5237521     -0.60643652    -38384.712      9.22           9.22           9.22           783.77746    
       329   0             -502.5822       31114.588      97653.745     -16364.67       12054.689     -2.5237557     -0.60643745    -38384.712      9.22           9.22           9.22           783.77746    
       330   0             -502.5822       31114.588      97653.745     -16364.67       12054.689     -2.5237556     -0.60643754    -38384.712      9.22           9.22           9.22           783.77746    
       331   0             -502.5822       31114.588      97653.745     -16364.67       12054.689     -2.5237532     -0.60643568    -38384.712      9.22           9.22           9.22           783.77746    
       332   0             -502.5822       31114.588      97653.745     -16364.67       12054.689     -2.5237541     -0.60643599    -38384.712      9.22           9.22           9.22           783.77746    
       333   0             -502.5822       31114.588      97653.745     -16364.67       12054.689     -2.5237565     -0.60643816    -38384.712      9.22           9.22           9.22           783.77746    
       334   0             -502.5822       31114.588      97653.745     -16364.67       12054.689     -2.5237565     -0.60643989    -38384.712      9.22           9.22           9.22           783.77746    
       335   0             -502.5822       31114.588      97653.745     -16364.67       12054.689     -2.5237546     -0.60643937    -38384.712      9.22           9.22           9.22           783.77746    
       336   0             -502.5822       31114.588      97653.745     -16364.67       12054.689     -2.5237526     -0.60643772    -38384.712      9.22           9.22           9.22           783.77746    
       337   0             -502.5822       31114.588      97653.745     -16364.67       12054.689     -2.5237496     -0.60643608    -38384.712      9.22           9.22           9.22           783.77746    
       338   0             -502.5822       31114.588      97653.745     -16364.67       12054.689     -2.5237478     -0.60643529    -38384.712      9.22           9.22           9.22           783.77746    
       339   0             -502.5822       31114.588      97653.745     -16364.67       12054.689     -2.5237501     -0.60643566    -38384.712      9.22           9.22           9.22           783.77746    
       340   0             -502.5822       31114.588      97653.745     -16364.67       12054.689     -2.5237548     -0.60643687    -38384.712      9.22           9.22           9.22           783.77746    
       341   0             -502.5822       31114.588      97653.745     -16364.67       12054.689     -2.5237584     -0.60643821    -38384.712      9.22           9.22           9.22           783.77746    
       342   0             -502.5822       31114.588      97653.745     -16364.67       12054.689     -2.5237581     -0.60643866    -38384.712      9.22           9.22           9.22           783.77746    
       343   0             -502.5822       31114.588      97653.745     -16364.67       12054.689     -2.5237569     -0.60643849    -38384.712      9.22           9.22           9.22           783.77746    
       344   0             -502.5822       31114.588      97653.745     -16364.67       12054.689     -2.5237559     -0.60643797    -38384.712      9.22           9.22           9.22           783.77746    
       345   0             -502.5822       31114.588      97653.745     -16364.67       12054.689     -2.523755      -0.60643748    -38384.712      9.22           9.22           9.22           783.77746    
       346   0             -502.5822       31114.588      97653.745     -16364.67       12054.689     -2.5237541     -0.60643716    -38384.712      9.22           9.22           9.22           783.77746    
       347   0             -502.5822       31114.588      97653.745     -16364.67       12054.689     -2.5237535     -0.60643715    -38384.712      9.22           9.22           9.22           783.77746    
       348   0             -502.5822       31114.588      97653.745     -16364.67       12054.689     -2.5237533     -0.60643747    -38384.712      9.22           9.22           9.22           783.77746    
       349   0             -502.5822       31114.588      97653.745     -16364.67       12054.689     -2.5237533     -0.60643757    -38384.712      9.22           9.22           9.22           783.77746    
       350   0             -502.5822       31114.588      97653.745     -16364.67       12054.689     -2.5237534     -0.60643742    -38384.712      9.22           9.22           9.22           783.77746    
       351   0             -502.5822       31114.588      97653.745     -16364.67       12054.689     -2.5237536     -0.60643725    -38384.712      9.22           9.22           9.22           783.77746    
       352   0             -502.5822       31114.588      97653.745     -16364.67       12054.689     -2.5237539     -0.60643725    -38384.712      9.22           9.22           9.22           783.77746    
       353   0             -502.5822       31114.588      97653.745     -16364.67       12054.689     -2.523754      -0.60643728    -38384.712      9.22           9.22           9.22           783.77746    
       354   0             -502.5822       31114.588      97653.745     -16364.67       12054.689     -2.5237541     -0.60643729    -38384.712      9.22           9.22           9.22           783.77746    
       355   0             -502.5822       31114.588      97653.745     -16364.67       12054.689     -2.5237543     -0.60643731    -38384.712      9.22           9.22           9.22           783.77746    
       356   0             -502.5822       31114.588      97653.745     -16364.67       12054.689     -2.5237543     -0.60643735    -38384.712      9.22           9.22           9.22           783.77746    
       357   0             -502.5822       31114.588      97653.745     -16364.67       12054.689     -2.5237542     -0.60643737    -38384.712      9.22           9.22           9.22           783.77746    
       358   0             -502.5822       31114.588      97653.745     -16364.67       12054.689     -2.523754      -0.60643732    -38384.712      9.22           9.22           9.22           783.77746    
       359   0             -502.5822       31114.588      97653.745     -16364.67       12054.689     -2.5237539     -0.60643725    -38384.712      9.22           9.22           9.22           783.77746    
       360   0             -502.5822       31114.588      97653.745     -16364.67       12054.689     -2.5237539     -0.60643724    -38384.712      9.22           9.22           9.22           783.77746    
       361   0             -502.5822       31114.588      97653.745     -16364.67       12054.689     -2.5237539     -0.60643731    -38384.712      9.22           9.22           9.22           783.77746    
       362   0             -502.5822       31114.588      97653.745     -16364.67       12054.689     -2.523754      -0.60643735    -38384.712      9.22           9.22           9.22           783.77746    
       363   0             -502.5822       31114.588      97653.745     -16364.67       12054.689     -2.5237541     -0.60643734    -38384.712      9.22           9.22           9.22           783.77746    
       364   0             -502.5822       31114.588      97653.745     -16364.67       12054.689     -2.5237541     -0.60643731    -38384.712      9.22           9.22           9.22           783.77746    
       365   0             -502.5822       31114.588      97653.745     -16364.67       12054.689     -2.5237541     -0.60643734    -38384.712      9.22           9.22           9.22           783.77746    
       366   0             -502.5822       31114.588      97653.745     -16364.67       12054.689     -2.523754      -0.60643734    -38384.712      9.22           9.22           9.22           783.77746    
       367   0             -502.5822       31114.588      97653.745     -16364.67       12054.689     -2.523754      -0.60643732    -38384.712      9.22           9.22           9.22           783.77746    
       368   0             -502.5822       31114.588      97653.745     -16364.67       12054.689     -2.523754      -0.6064373     -38384.712      9.22           9.22           9.22           783.77746    
       369   0             -502.5822       31114.588      97653.745     -16364.67       12054.689     -2.523754      -0.6064373     -38384.712      9.22           9.22           9.22           783.77746    
       370   0             -502.5822       31114.588      97653.745     -16364.67       12054.689     -2.523754      -0.60643731    -38384.712      9.22           9.22           9.22           783.77746    
       371   0             -502.5822       31114.588      97653.745     -16364.67       12054.689     -2.523754      -0.60643731    -38384.712      9.22           9.22           9.22           783.77746    
       372   0             -502.5822       31114.588      97653.745     -16364.67       12054.689     -2.523754      -0.6064373     -38384.712      9.22           9.22           9.22           783.77746    
       373   0             -502.5822       31114.588      97653.745     -16364.67       12054.689     -2.523754      -0.60643729    -38384.712      9.22           9.22           9.22           783.77746    
       374   0             -502.5822       31114.588      97653.745     -16364.67       12054.689     -2.523754      -0.6064373     -38384.712      9.22           9.22           9.22           783.77746    
       375   0             -502.5822       31114.588      97653.745     -16364.67       12054.689     -2.523754      -0.60643732    -38384.712      9.22           9.22           9.22           783.77746    
       376   0             -502.5822       31114.588      97653.745     -16364.67       12054.689     -2.5237541     -0.60643732    -38384.712      9.22           9.22           9.22           783.77746    
       377   0             -502.5822       31114.588      97653.745     -16364.67       12054.689     -2.5237541     -0.60643732    -38384.712      9.22           9.22           9.22           783.77746    
       378   0             -502.5822       31114.588      97653.745     -16364.67       12054.689     -2.523754      -0.60643732    -38384.712      9.22           9.22           9.22           783.77746    
       379   0             -502.5822       31114.588      97653.745     -16364.67       12054.689     -2.523754      -0.60643732    -38384.712      9.22           9.22           9.22           783.77746    
       380   0             -502.5822       31114.588      97653.745     -16364.67       12054.689     -2.523754      -0.60643731    -38384.712      9.22           9.22           9.22           783.77746    
       381   0             -502.5822       31114.588      97653.745     -16364.67       12054.689     -2.523754      -0.60643731    -38384.712      9.22           9.22           9.22           783.77746    
       382   0             -502.5822       31114.588      97653.745     -16364.67       12054.689     -2.523754      -0.60643731    -38384.712      9.22           9.22           9.22           783.77746    
       383   0             -502.5822       31114.588      97653.745     -16364.67       12054.689     -2.523754      -0.60643731    -38384.712      9.22           9.22           9.22           783.77746    
       384   0             -502.5822       31114.588      97653.745     -16364.67       12054.689     -2.523754      -0.60643731    -38384.712      9.22           9.22           9.22           783.77746    
       385   0             -502.5822       31114.588      97653.745     -16364.67       12054.689     -2.523754      -0.60643731    -38384.712      9.22           9.22           9.22           783.77746    
       386   0             -502.5822       31114.588      97653.745     -16364.67       12054.689     -2.523754      -0.60643731    -38384.712      9.22           9.22           9.22           783.77746    
       387   0             -502.5822       31114.588      97653.745     -16364.67       12054.689     -2.523754      -0.60643731    -38384.712      9.22           9.22           9.22           783.77746    
       388   0             -502.5822       31114.588      97653.745     -16364.67       12054.689     -2.523754      -0.60643731    -38384.712      9.22           9.22           9.22           783.77746    
       389   0             -502.5822       31114.588      97653.745     -16364.67       12054.689     -2.523754      -0.60643731    -38384.712      9.22           9.22           9.22           783.77746    
       390   0             -502.5822       31114.588      97653.745     -16364.67       12054.689     -2.523754      -0.60643731    -38384.712      9.22           9.22           9.22           783.77746    
       391   0             -502.5822       31114.588      97653.745     -16364.67       12054.689     -2.523754      -0.60643731    -38384.712      9.22           9.22           9.22           783.77746    
       392   0             -502.5822       31114.588      97653.745     -16364.67       12054.689     -2.523754      -0.60643731    -38384.712      9.22           9.22           9.22           783.77746    
       393   0             -502.5822       31114.588      97653.745     -16364.67       12054.689     -2.523754      -0.60643731    -38384.712      9.22           9.22           9.22           783.77746    
Loop time of 0.354096 on 1 procs for 388 steps with 64 atoms

98.3% CPU use with 1 MPI tasks x no OpenMP threads

Minimization stats:
  Stopping criterion = force tolerance
  Energy initial, next-to-last, final = 
     -472.768000035659  -502.582204411297  -502.582204411297
  Force two-norm initial, final = 0.0001475313 9.4411401e-13
  Force max component initial, final = 2.4490082e-05 2.0335122e-13
  Final line search alpha, max atom move = 1 2.0335122e-13
  Iterations, force evaluations = 388 587

MPI task timing breakdown:
Section |  min time  |  avg time  |  max time  |%varavg| %total
---------------------------------------------------------------
Pair    | 0.34665    | 0.34665    | 0.34665    |   0.0 | 97.90
Neigh   | 0.00024485 | 0.00024485 | 0.00024485 |   0.0 |  0.07
Comm    | 0.0017298  | 0.0017298  | 0.0017298  |   0.0 |  0.49
Output  | 0.0038438  | 0.0038438  | 0.0038438  |   0.0 |  1.09
Modify  | 0          | 0          | 0          |   0.0 |  0.00
Other   |            | 0.001628   |            |       |  0.46

Nlocal:             64 ave          64 max          64 min
Histogram: 1 0 0 0 0 0 0 0 0 0
Nghost:            665 ave         665 max         665 min
Histogram: 1 0 0 0 0 0 0 0 0 0
Neighs:           2684 ave        2684 max        2684 min
Histogram: 1 0 0 0 0 0 0 0 0 0
FullNghs:         5368 ave        5368 max        5368 min
Histogram: 1 0 0 0 0 0 0 0 0 0

Total # of neighbors = 5368
Ave neighs/atom = 83.875
Neighbor list builds = 1
Dangerous builds = 0
=========================================
Components of the Elastic Constant Tensor
=========================================
Elastic Constant C11all = 490.443685314502 GPa
Elastic Constant C22all = 429.560600830999 GPa
Elastic Constant C33all = 380.598019735495 GPa
Elastic Constant C12all = 98.452134474268 GPa
Elastic Constant C13all = 92.616364514739 GPa
Elastic Constant C23all = 39.5156673699966 GPa
Elastic Constant C44all = 36.5189341215009 GPa
Elastic Constant C55all = 25.6470296690313 GPa
Elastic Constant C66all = 25.2375400906523 GPa
Elastic Constant C14all = -16.9071278299816 GPa
Elastic Constant C15all = 1.39321682781528e-08 GPa
Elastic Constant C16all = -6.83956389188865e-10 GPa
Elastic Constant C24all = -13.5159409737607 GPa
Elastic Constant C25all = -1.58188984671815e-08 GPa
Elastic Constant C26all = -5.78268157458255e-09 GPa
Elastic Constant C34all = -38.4268658005131 GPa
Elastic Constant C35all = 9.88764921363575e-10 GPa
Elastic Constant C36all = -1.38949123306838e-09 GPa
Elastic Constant C45all = -8.24299272779182e-09 GPa
Elastic Constant C46all = -6.80329303861745e-09 GPa
Elastic Constant C56all = 6.06437309032503 GPa
=========================================
Average properties for a cubic crystal
=========================================
Bulk Modulus = 195.752293177667 GPa
Shear Modulus 1 = 29.1345012937282 GPa
Shear Modulus 2 = 178.336356586999 GPa
Poisson Ratio = 0.150591825711259
Total wall time: 0:00:04
