64
 Atoms. Timestep: 0
1 -4.609 -4.609 -4.609
1 -2.3045 -2.3045 -4.609
1 -2.3045 -4.609 -2.3045
1 -4.609 -2.3045 -2.3045
1 0 -4.609 -4.609
1 2.3045 -2.3045 -4.609
1 2.3045 -4.609 -2.3045
1 0 -2.3045 -2.3045
1 -4.609 0 -4.609
1 -2.3045 2.3045 -4.609
1 -2.3045 0 -2.3045
1 -4.609 2.3045 -2.3045
1 0 0 -4.609
1 2.3045 2.3045 -4.609
1 2.3045 0 -2.3045
1 0 2.3045 -2.3045
1 -4.609 -4.609 0
1 -2.3045 -2.3045 0
1 -2.3045 -4.609 2.3045
1 -4.609 -2.3045 2.3045
1 0 -4.609 0
1 2.3045 -2.3045 0
1 2.3045 -4.609 2.3045
1 0 -2.3045 2.3045
1 -4.609 0 0
1 -2.3045 2.3045 0
1 -2.3045 0 2.3045
1 -4.609 2.3045 2.3045
1 0 0 0
1 2.3045 2.3045 0
1 2.3045 0 2.3045
1 0 2.3045 2.3045
2 -2.3045 -4.609 -4.609
2 -4.609 -2.3045 -4.609
2 2.3045 -4.609 -4.609
2 0 -2.3045 -4.609
2 -2.3045 0 -4.609
2 -4.609 2.3045 -4.609
2 2.3045 0 -4.609
2 0 2.3045 -4.609
2 -4.609 -4.609 -2.3045
2 -2.3045 -2.3045 -2.3045
2 -2.3045 -4.609 0
2 -4.609 -2.3045 0
2 0 -4.609 -2.3045
2 2.3045 -2.3045 -2.3045
2 2.3045 -4.609 0
2 0 -2.3045 0
2 -4.609 0 -2.3045
2 -2.3045 2.3045 -2.3045
2 -2.3045 0 0
2 -4.609 2.3045 0
2 0 0 -2.3045
2 2.3045 2.3045 -2.3045
2 2.3045 0 0
2 0 2.3045 0
2 -4.609 -4.609 2.3045
2 -2.3045 -2.3045 2.3045
2 0 -4.609 2.3045
2 2.3045 -2.3045 2.3045
2 -4.609 0 2.3045
2 -2.3045 2.3045 2.3045
2 0 0 2.3045
2 2.3045 2.3045 2.3045
64
 Atoms. Timestep: 1
1 -4.60946 -4.60946 -4.60946
1 -2.30473 -2.30473 -4.60946
1 -2.30473 -4.60946 -2.30473
1 -4.60946 -2.30473 -2.30473
1 8.10276e-21 -4.60946 -4.60946
1 2.30473 -2.30473 -4.60946
1 2.30473 -4.60946 -2.30473
1 -8.5079e-20 -2.30473 -2.30473
1 -4.60946 0 -4.60946
1 -2.30473 2.30473 -4.60946
1 -2.30473 -9.39497e-20 -2.30473
1 -4.60946 2.30473 -2.30473
1 -3.64624e-20 -3.72303e-20 -4.60946
1 2.30473 2.30473 -4.60946
1 2.30473 -3.2411e-20 -2.30473
1 -2.43083e-20 2.30473 -2.30473
1 -4.60946 -4.60946 -4.05138e-20
1 -2.30473 -2.30473 -7.69762e-20
1 -2.30473 -4.60946 2.30473
1 -4.60946 -2.30473 2.30473
1 -4.45652e-20 -4.60946 -1.62055e-20
1 2.30473 -2.30473 -4.05138e-20
1 2.30473 -4.60946 2.30473
1 -6.48221e-20 -2.30473 2.30473
1 -4.60946 -3.2411e-20 -4.86166e-20
1 -2.30473 2.30473 -1.62055e-20
1 -2.30473 -3.83954e-22 2.30473
1 -4.60946 2.30473 2.30473
1 -1.25593e-19 -4.49491e-20 -4.45652e-20
1 2.30473 2.30473 -4.05138e-20
1 2.30473 1.62055e-20 2.30473
1 -2.02569e-20 2.30473 2.30473
2 -2.30473 -4.60946 -4.60946
2 -4.60946 -2.30473 -4.60946
2 2.30473 -4.60946 -4.60946
2 4.05138e-20 -2.30473 -4.60946
2 -2.30473 -6.9509e-21 -4.60946
2 -4.60946 2.30473 -4.60946
2 2.30473 8.10276e-21 -4.60946
2 1.21541e-20 2.30473 -4.60946
2 -4.60946 -4.60946 -2.30473
2 -2.30473 -2.30473 -2.30473
2 -2.30473 -4.60946 -3.64624e-20
2 -4.60946 -2.30473 3.64624e-20
2 2.43083e-20 -4.60946 -2.30473
2 2.30473 -2.30473 -2.30473
2 2.30473 -4.60946 1.21541e-20
2 4.45652e-20 -2.30473 4.08978e-20
2 -4.60946 2.02569e-20 -2.30473
2 -2.30473 2.30473 -2.30473
2 -2.30473 2.50762e-20 -7.71881e-21
2 -4.60946 2.30473 -1.21541e-20
2 4.45652e-20 4.08978e-20 -2.30473
2 2.30473 2.30473 -2.30473
2 2.30473 4.05138e-21 -2.02569e-20
2 4.05138e-20 2.30473 2.43083e-20
2 -4.60946 -4.60946 2.30473
2 -2.30473 -2.30473 2.30473
2 8.10276e-21 -4.60946 2.30473
2 2.30473 -2.30473 2.30473
2 -4.60946 0 2.30473
2 -2.30473 2.30473 2.30473
2 8.10276e-21 -1.17702e-20 2.30473
2 2.30473 2.30473 2.30473
64
 Atoms. Timestep: 2
1 -4.60992 -4.60992 -4.60992
1 -2.30496 -2.30496 -4.60992
1 -2.30496 -4.60992 -2.30496
1 -4.60992 -2.30496 -2.30496
1 9.02041e-20 -4.60992 -4.60992
1 2.30496 -2.30496 -4.60992
1 2.30496 -4.60992 -2.30496
1 1.27802e-19 -2.30496 -2.30496
1 -4.60992 4.51102e-20 -4.60992
1 -2.30496 2.30496 -4.60992
1 -2.30496 8.19996e-20 -2.30496
1 -4.60992 2.30496 -2.30496
1 7.51626e-20 4.44067e-20 -4.60992
1 2.30496 2.30496 -4.60992
1 2.30496 3.00734e-20 -2.30496
1 7.51723e-20 2.30496 -2.30496
1 -4.60992 -4.60992 0
1 -2.30496 -2.30496 1.27812e-19
1 -2.30496 -4.60992 2.30496
1 -4.60992 -2.30496 2.30496
1 1.35307e-19 -4.60992 4.51102e-20
1 2.30496 -2.30496 9.02203e-20
1 2.30496 -4.60992 2.30496
1 9.02073e-20 -2.30496 2.30496
1 -4.60992 9.02203e-20 3.00734e-20
1 -2.30496 2.30496 6.01469e-20
1 -2.30496 2.97214e-20 2.30496
1 -4.60992 2.30496 2.30496
1 3.75778e-20 9.73892e-20 9.77387e-20
1 2.30496 2.30496 -1.50367e-20
1 2.30496 0 2.30496
1 6.01396e-20 2.30496 2.30496
2 -2.30496 -4.60992 -4.60992
2 -4.60992 -2.30496 -4.60992
2 2.30496 -4.60992 -4.60992
2 3.0098e-20 -2.30496 -4.60992
2 -2.30496 1.04947e-21 -4.60992
2 -4.60992 2.30496 -4.60992
2 2.30496 -4.51102e-20 -4.60992
2 -1.50278e-20 2.30496 -4.60992
2 -4.60992 -4.60992 -2.30496
2 -2.30496 -2.30496 -2.30496
2 -2.30496 -4.60992 -2.25551e-20
2 -4.60992 -2.30496 0
2 -7.5011e-21 -4.60992 -2.30496
2 2.30496 -2.30496 -2.30496
2 2.30496 -4.60992 -7.51836e-20
2 2.25781e-20 -2.30496 7.87056e-21
2 -4.60992 -3.00734e-20 -2.30496
2 -2.30496 2.30496 -2.30496
2 -2.30496 8.22824e-21 6.80156e-20
2 -4.60992 2.30496 -9.02203e-20
2 2.2577e-20 7.87182e-21 -2.30496
2 2.30496 2.30496 -2.30496
2 2.30496 -2.25551e-20 -2.25551e-20
2 4.51281e-20 2.30496 -2.25551e-20
2 -4.60992 -4.60992 2.30496
2 -2.30496 -2.30496 2.30496
2 -1.50251e-20 -4.60992 2.30496
2 2.30496 -2.30496 2.30496
2 -4.60992 7.51836e-21 2.30496
2 -2.30496 2.30496 2.30496
2 2.25705e-20 -2.22054e-20 2.30496
2 2.30496 2.30496 2.30496
64
 Atoms. Timestep: 3
1 -4.61 -4.61 -4.61
1 -2.305 -2.305 -4.61
1 -2.305 -4.61 -2.305
1 -4.61 -2.305 -2.305
1 -3.78419e-19 -4.61 -4.61
1 2.305 -2.305 -4.61
1 2.305 -4.61 -2.305
1 -2.20024e-19 -2.305 -2.305
1 -4.61 -1.76028e-20 -4.61
1 -2.305 2.305 -4.61
1 -2.305 -1.14376e-19 -2.305
1 -4.61 2.305 -2.305
1 -5.27941e-20 -5.27512e-20 -4.61
1 2.305 2.305 -4.61
1 2.305 -8.80138e-20 -2.305
1 -2.64019e-19 2.305 -2.305
1 -4.61 -4.61 -1.76028e-19
1 -2.305 -2.305 -1.40822e-19
1 -2.305 -4.61 2.305
1 -4.61 -2.305 2.305
1 -1.58407e-19 -4.61 -1.76028e-19
1 2.305 -2.305 -3.52055e-20
1 2.305 -4.61 2.305
1 -2.37627e-19 -2.305 2.305
1 -4.61 -1.05617e-19 -1.76028e-20
1 -2.305 2.305 -7.0411e-20
1 -2.305 -1.05588e-19 2.305
1 -4.61 2.305 2.305
1 -4.39984e-20 -9.67872e-20 -9.68152e-20
1 2.305 2.305 -5.28083e-20
1 2.305 -5.28083e-20 2.305
1 -2.28816e-19 2.305 2.305
2 -2.305 -4.61 -4.61
2 -4.61 -2.305 -4.61
2 2.305 -4.61 -4.61
2 6.15876e-20 -2.305 -4.61
2 -2.305 2.6327e-20 -4.61
2 -4.61 2.305 -4.61
2 2.305 -2.64041e-20 -4.61
2 1.1439e-19 2.305 -4.61
2 -4.61 -4.61 -2.305
2 -2.305 -2.305 -2.305
2 -2.305 -4.61 1.05617e-19
2 -4.61 -2.305 7.92124e-20
2 1.14382e-19 -4.61 -2.305
2 2.305 -2.305 -2.305
2 2.305 -4.61 -5.28083e-20
2 2.63845e-20 -2.305 -4.40317e-20
2 -4.61 6.16096e-20 -2.305
2 -2.305 2.305 -2.305
2 -2.305 2.63461e-20 -4.40251e-20
2 -4.61 2.305 5.28083e-20
2 2.63888e-20 4.39822e-20 -2.305
2 2.305 2.305 -2.305
2 2.305 6.16096e-20 4.40069e-20
2 8.80061e-20 2.305 6.16096e-20
2 -4.61 -4.61 2.305
2 -2.305 -2.305 2.305
2 7.91787e-20 -4.61 2.305
2 2.305 -2.305 2.305
2 -4.61 5.28083e-20 2.305
2 -2.305 2.305 2.305
2 -3.52155e-20 8.79836e-20 2.305
2 2.305 2.305 2.305
64
 Atoms. Timestep: 4
1 -4.61 -4.61 -4.61
1 -2.305 -2.305 -4.61
1 -2.305 -4.61 -2.305
1 -4.61 -2.305 -2.305
1 -7.05117e-20 -4.61 -4.61
1 2.305 -2.305 -4.61
1 2.305 -4.61 -2.305
1 4.39459e-20 -2.305 -2.305
1 -4.61 -3.5192e-20 -4.61
1 -2.305 2.305 -4.61
1 -2.305 -8.75245e-22 -2.305
1 -4.61 2.305 -2.305
1 -2.6435e-20 -5.36678e-20 -4.61
1 2.305 2.305 -4.61
1 2.305 -1.05576e-19 -2.305
1 -2.64715e-20 2.305 -2.305
1 -4.61 -4.61 -7.0384e-20
1 -2.305 -2.305 7.0384e-20
1 -2.305 -4.61 2.305
1 -4.61 -2.305 2.305
1 -1.76565e-20 -4.61 -1.40768e-19
1 2.305 -2.305 -1.05576e-19
1 2.305 -4.61 2.305
1 8.7615e-21 -2.305 2.305
1 -4.61 -1.40768e-19 -1.40768e-19
1 -2.305 2.305 3.5192e-20
1 -2.305 4.35434e-20 2.305
1 -4.61 2.305 2.305
1 -1.0559e-19 -2.68343e-20 -9.6778e-20
1 2.305 2.305 -1.40768e-19
1 2.305 -2.28748e-19 2.305
1 1.75224e-20 2.305 2.305
2 -2.305 -4.61 -4.61
2 -4.61 -2.305 -4.61
2 2.305 -4.61 -4.61
2 -1.75021e-20 -2.305 -4.61
2 -2.305 -7.48581e-21 -4.61
2 -4.61 2.305 -4.61
2 2.305 4.399e-20 -4.61
2 -3.50843e-20 2.305 -4.61
2 -4.61 -4.61 -2.305
2 -2.305 -2.305 -2.305
2 -2.305 -4.61 -8.798e-21
2 -4.61 -2.305 -4.399e-20
2 -1.7477e-20 -4.61 -2.305
2 2.305 -2.305 -2.305
2 2.305 -4.61 8.798e-21
2 -6.15403e-20 -2.305 -9.63412e-20
2 -4.61 -8.798e-21 -2.305
2 -2.305 2.305 -2.305
2 -2.305 -6.95007e-20 -6.99585e-20
2 -4.61 2.305 -1.7596e-20
2 -7.91454e-20 -9.63422e-20 -2.305
2 2.305 2.305 -2.305
2 2.305 6.1586e-20 1.3197e-19
2 7.0439e-20 2.305 1.23172e-19
2 -4.61 -4.61 2.305
2 -2.305 -2.305 2.305
2 -1.74944e-20 -4.61 2.305
2 2.305 -2.305 2.305
2 -4.61 4.399e-20 2.305
2 -2.305 2.305 2.305
2 7.04082e-20 1.4121e-19 2.305
2 2.305 2.305 2.305
64
 Atoms. Timestep: 5
1 -4.61 -4.61 -4.61
1 -2.305 -2.305 -4.61
1 -2.305 -4.61 -2.305
1 -4.61 -2.305 -2.305
1 7.91811e-20 -4.61 -4.61
1 2.305 -2.305 -4.61
1 2.305 -4.61 -2.305
1 2.02379e-19 -2.305 -2.305
1 -4.61 7.03902e-20 -4.61
1 -2.305 2.305 -4.61
1 -2.305 9.84577e-20 -2.305
1 -4.61 2.305 -2.305
1 1.40765e-19 8.96418e-20 -4.61
1 2.305 2.305 -4.61
1 2.305 3.51951e-20 -2.305
1 -3.51967e-20 2.305 -2.305
1 -4.61 -4.61 1.4078e-19
1 -2.305 -2.305 1.93573e-19
1 -2.305 -4.61 2.305
1 -4.61 -2.305 2.305
1 1.67156e-19 -4.61 1.05585e-19
1 2.305 -2.305 0
1 2.305 -4.61 2.305
1 -3.51926e-20 -2.305 2.305
1 -4.61 5.27927e-20 1.75976e-20
1 -2.305 2.305 1.75976e-20
1 -2.305 8.29958e-22 2.305
1 -4.61 2.305 2.305
1 7.91682e-20 4.48092e-20 8.79878e-21
1 2.305 2.305 -7.03902e-20
1 2.305 -1.23183e-19 2.305
1 2.16617e-25 2.305 2.305
2 -2.305 -4.61 -4.61
2 -4.61 -2.305 -4.61
2 2.305 -4.61 -4.61
2 8.79456e-21 -2.305 -4.61
2 -2.305 -2.00952e-20 -4.61
2 -4.61 2.305 -4.61
2 2.305 -6.15915e-20 -4.61
2 -4.39984e-20 2.305 -4.61
2 -4.61 -4.61 -2.305
2 -2.305 -2.305 -2.305
2 -2.305 -4.61 -2.63963e-20
2 -4.61 -2.305 2.63963e-20
2 1.7596e-20 -4.61 -2.305
2 2.305 -2.305 -2.305
2 2.305 -4.61 -7.03902e-20
2 -3.52119e-20 -2.305 -1.41609e-19
2 -4.61 6.15915e-20 -2.305
2 -2.305 2.305 -2.305
2 -2.305 -7.20611e-20 -1.41607e-19
2 -4.61 2.305 -5.27927e-20
2 -3.52118e-20 -7.12267e-20 -2.305
2 2.305 2.305 -2.305
2 2.305 8.79878e-21 -2.63963e-20
2 -2.63771e-20 2.305 8.79878e-21
2 -4.61 -4.61 2.305
2 -2.305 -2.305 2.305
2 -5.27959e-20 -4.61 2.305
2 2.305 -2.305 2.305
2 -4.61 -3.51951e-20 2.305
2 -2.305 2.305 2.305
2 -4.39799e-20 -9.61526e-21 2.305
2 2.305 2.305 2.305
