LAMMPS (23 Jun 2022)
Lattice spacing in x,y,z = 4.609 4.609 4.609
Created triclinic box = (-4.609 -4.609 -4.609) to (4.609 4.609 4.609) with tilt (0 0 0)
  1 by 1 by 1 MPI processor grid
Lattice spacing in x,y,z = 4.609 4.609 4.609
Created 32 atoms
  using lattice units in triclinic box = (-4.609 -4.609 -4.609) to (4.609 4.609 4.609) with tilt (0 0 0)
  create_atoms CPU = 0.000 seconds
Lattice spacing in x,y,z = 4.609 4.609 4.609
Created 32 atoms
  using lattice units in triclinic box = (-4.609 -4.609 -4.609) to (4.609 4.609 4.609) with tilt (0 0 0)
  create_atoms CPU = 0.000 seconds
Reading MEAM library file library.meam with DATE: 2015-02-12
Neighbor list info ...
  update every 1 steps, delay 0 steps, check yes
  max neighbors/atom: 2000, page size: 100000
  master list distance cutoff = 6.26
  ghost atom cutoff = 6.26
  2 neighbor lists, perpetual/occasional/extra = 2 0 0
  (1) pair meam, perpetual
      attributes: full, newton on
      pair build: full/nsq
      stencil: none
      bin: none
  (2) pair meam, perpetual, half/full from (1)
      attributes: half, newton on
      pair build: halffull/newton
      stencil: none
      bin: none
Setting up cg style minimization ...
  Unit style    : metal
  Current step  : 0
WARNING: Energy due to 3 extra global DOFs will be included in minimizer energies
Per MPI rank memory allocation (min/avg/max) = 10.94 | 10.94 | 10.94 Mbytes
   Step          Temp          PotEng         Press           Pxx            Pyy            Pzz            Pxy            Pxz            Pyz             Lx             Ly             Lz           Volume    
         0   0             -472.76778      1401.3526      1401.3526      1401.3526      1401.3526     -7.2670886e-12 -1.3625791e-11  4.9961234e-12  9.218          9.218          9.218          783.26751    
         1   0             -472.76794      754.98878      754.98878      754.98878      754.98878     -6.3567953e-12 -5.4486817e-12 -3.6324544e-12  9.2189218      9.2189218      9.2189218      783.50251    
         2   0             -472.768        109.45988      109.45988      109.45988      109.45988      1.6341143e-11  9.5323332e-12  1.6795063e-11  9.2198436      9.2198436      9.2198436      783.73756    
         3   0             -472.768       -0.040611996   -0.040611996   -0.040611996   -0.040611996    9.5318479e-12  1.1347438e-11  1.3616926e-12  9.2200001      9.2200001      9.2200001      783.77747    
         4   0             -472.768       -3.6026149e-06 -3.602611e-06  -3.6025983e-06 -3.6026355e-06 -1.9063696e-11 -2.4056569e-11 -8.1701555e-12  9.22           9.22           9.22           783.77745    
         5   0             -472.768        7.0301232e-10  6.9650786e-10  6.9128593e-10  7.2124317e-10  1.8155901e-12 -2.1787081e-11 -1.3616926e-12  9.22           9.22           9.22           783.77745    
Loop time of 0.00684225 on 1 procs for 5 steps with 64 atoms

99.2% CPU use with 1 MPI tasks x no OpenMP threads

Minimization stats:
  Stopping criterion = force tolerance
  Energy initial, next-to-last, final = 
     -472.767777134224  -472.768000027408  -472.768000027409
  Force two-norm initial, final = 1.1866095 5.9785046e-13
  Force max component initial, final = 0.68508929 3.5275234e-13
  Final line search alpha, max atom move = 1 3.5275234e-13
  Iterations, force evaluations = 5 8

MPI task timing breakdown:
Section |  min time  |  avg time  |  max time  |%varavg| %total
---------------------------------------------------------------
Pair    | 0.0065335  | 0.0065335  | 0.0065335  |   0.0 | 95.49
Neigh   | 0          | 0          | 0          |   0.0 |  0.00
Comm    | 2.1043e-05 | 2.1043e-05 | 2.1043e-05 |   0.0 |  0.31
Output  | 0.00017342 | 0.00017342 | 0.00017342 |   0.0 |  2.53
Modify  | 0          | 0          | 0          |   0.0 |  0.00
Other   |            | 0.0001142  |            |       |  1.67

Nlocal:             64 ave          64 max          64 min
Histogram: 1 0 0 0 0 0 0 0 0 0
Nghost:            665 ave         665 max         665 min
Histogram: 1 0 0 0 0 0 0 0 0 0
Neighs:           2560 ave        2560 max        2560 min
Histogram: 1 0 0 0 0 0 0 0 0 0
FullNghs:         5120 ave        5120 max        5120 min
Histogram: 1 0 0 0 0 0 0 0 0 0

Total # of neighbors = 5120
Ave neighs/atom = 80
Neighbor list builds = 0
Dangerous builds = 0
Displacing atoms ...
System init for write_restart ...
Reading restart file ...
  restart file = 23 Jun 2022, LAMMPS = 23 Jun 2022
  restoring atom style atomic from restart
  triclinic box = (-4.61 -4.61 -4.61) to (4.61 4.61 4.61) with tilt (0 0 0)
  1 by 1 by 1 MPI processor grid
  pair style meam stores no restart info
  64 atoms
  read_restart CPU = 0.000 seconds
Reading MEAM library file library.meam with DATE: 2015-02-12
Changing box ...
  triclinic box = (-4.61 -4.61 -4.61) to (4.6099078 4.61 4.61) with tilt (0 0 0)
  triclinic box = (-4.61 -4.61 -4.61) to (4.6099078 4.61 4.61) with tilt (0 0 0)
  triclinic box = (-4.61 -4.61 -4.61) to (4.6099078 4.61 4.61) with tilt (0 0 0)
Neighbor list info ...
  update every 1 steps, delay 0 steps, check yes
  max neighbors/atom: 2000, page size: 100000
  master list distance cutoff = 6.26
  ghost atom cutoff = 6.26
  2 neighbor lists, perpetual/occasional/extra = 2 0 0
  (1) pair meam, perpetual
      attributes: full, newton on
      pair build: full/nsq
      stencil: none
      bin: none
  (2) pair meam, perpetual, half/full from (1)
      attributes: half, newton on
      pair build: halffull/newton
      stencil: none
      bin: none
Setting up cg style minimization ...
  Unit style    : metal
  Current step  : 5
Per MPI rank memory allocation (min/avg/max) = 9.909 | 9.909 | 9.909 Mbytes
   Step          Temp          PotEng         Press           Pxx            Pyy            Pzz            Pxy            Pxz            Pyz             Lx             Ly             Lz           Volume    
         5   0             -472.768        21.50449       50.471259      7.0211062      7.0211064     -2.130087e-07   1.6486783e-07  1.8611483e-07  9.2199078      9.22           9.22           783.76962    
         6   0             -472.768        21.504489      50.471257      7.0211048      7.0211046      4.0597951e-09  8.2106325e-08  1.0998683e-07  9.2199078      9.22           9.22           783.76962    
         7   0             -472.768        21.504489      50.471257      7.0211046      7.0211045      1.3064783e-08  3.3388006e-08  1.5605607e-08  9.2199078      9.22           9.22           783.76962    
         8   0             -472.768        21.504489      50.471257      7.0211045      7.0211045      1.0837174e-08  1.5292723e-08  5.9860604e-09  9.2199078      9.22           9.22           783.76962    
         9   0             -472.768        21.504489      50.471257      7.0211045      7.0211045      9.1053233e-09 -1.1638374e-09  2.7665331e-09  9.2199078      9.22           9.22           783.76962    
        10   0             -472.768        21.504489      50.471257      7.0211045      7.0211045      1.6056481e-08 -2.9945409e-09 -4.069232e-09   9.2199078      9.22           9.22           783.76962    
        11   0             -472.768        21.504489      50.471257      7.0211045      7.0211045      1.0919176e-08  1.9748771e-09 -2.0852261e-09  9.2199078      9.22           9.22           783.76962    
        12   0             -472.768        21.504489      50.471257      7.0211045      7.0211045      4.6982193e-09  1.7410491e-08  6.9406165e-09  9.2199078      9.22           9.22           783.76962    
        13   0             -472.768        21.504489      50.471259      7.0211041      7.0211037     -8.6358146e-08  5.2455732e-07  1.4248213e-07  9.2199078      9.22           9.22           783.76962    
        14   0             -472.768        21.504637      50.472424      7.020863       7.0206228      4.4135949e-05  0.00026228365  8.1711291e-05  9.2199078      9.22           9.22           783.76962    
        15   0             -472.76814      23.467374      66.038451      3.7769939      0.58667853     0.71708994     3.4246369      1.0768244      9.2199078      9.22           9.22           783.76962    
        16   0             -472.76855      29.263072      112.11477     -5.8391077     -18.48645       2.9096524      13.543982      4.2993165      9.2199078      9.22           9.22           783.76962    
        17   0             -472.76922      38.795971      188.49112     -21.867815     -50.235395      6.6542255      30.289085      9.7024414      9.2199078      9.22           9.22           783.76962    
        18   0             -472.77014      51.900274      294.84619     -44.399277     -94.746089      11.995246      53.56582       17.306727      9.2199078      9.22           9.22           783.76962    
        19   0             -472.77127      68.340211      430.76858     -73.589213     -152.15873      18.954527      83.251841      27.117871      9.2199078      9.22           9.22           783.76962    
        20   0             -472.77259      87.794472      595.79615     -109.70234     -222.71039      27.554937      119.1762       39.112659      9.2199078      9.22           9.22           783.76962    
        21   0             -472.77412      109.755        789.62105     -153.41385     -306.94219      38.011246      160.98455      53.184362      9.2199078      9.22           9.22           783.76962    
        22   0             -472.77633      132.74206      1013.5608     -208.02249     -407.31214      52.063177      207.13378      68.715355      9.2199078      9.22           9.22           783.76962    
        23   0             -472.78331      146.99747      1273.5304     -295.4032      -537.1348       84.587635      243.0109       79.943045      9.2199078      9.22           9.22           783.76962    
        24   0             -472.80264      121.01549      1411.7813     -409.79308     -638.94174      175.52536      177.09027      52.027538      9.2199078      9.22           9.22           783.76962    
        25   0             -472.82134      106.65578      1598.4504     -520.8735      -757.60958      224.31736      151.91614      23.911132      9.2199078      9.22           9.22           783.76962    
        26   0             -472.83887      85.077597      1821.8783     -666.27208     -900.37343      303.45403      152.80076      26.860274      9.2199078      9.22           9.22           783.76962    
        27   0             -472.85582      79.279549      2097.4292     -797.32371     -1062.2669      308.30724      181.00633      19.710434      9.2199078      9.22           9.22           783.76962    
        28   0             -472.87292      66.453362      2430.9762     -966.44682     -1265.1693      391.67659      201.21081      23.790282      9.2199078      9.22           9.22           783.76962    
        29   0             -472.88963      64.78884       2814.2418     -1131.8662     -1488.0091      415.99227      238.81998      22.92997       9.2199078      9.22           9.22           783.76962    
        30   0             -472.90776      51.490212      3226.2022     -1324.4075     -1747.324       514.19187      263.83241      26.165967      9.2199078      9.22           9.22           783.76962    
        31   0             -472.92767      37.303094      3716.8359     -1544.7843     -2060.1423      600.27362      301.87198      28.123297      9.2199078      9.22           9.22           783.76962    
        32   0             -472.94833      21.27595       4262.4665     -1781.0856     -2417.5531      687.45193      347.98473      30.030525      9.2199078      9.22           9.22           783.76962    
        33   0             -472.96968     -4.7685969      4830.8851     -2032.9532     -2812.2377      806.18451      391.76582      32.496653      9.2199078      9.22           9.22           783.76962    
        34   0             -472.99156     -37.047988      5452.0843     -2301.5745     -3261.6538      927.15761      443.34482      33.949456      9.2199078      9.22           9.22           783.76962    
        35   0             -473.01292     -74.113506      6107.1418     -2573.1563     -3756.3261      1063.6001      498.25404      35.08957       9.2199078      9.22           9.22           783.76962    
        36   0             -473.0346      -123.25208      6783.5354     -2852.8175     -4300.4741      1217.9403      554.43231      35.29731       9.2199078      9.22           9.22           783.76962    
        37   0             -473.056       -181.7959       7504.2778     -3136.781      -4912.8845      1390.8174      616.61193      34.779602      9.2199078      9.22           9.22           783.76962    
        38   0             -473.07551     -244.75598      8230.9818     -3399.2505     -5565.9993      1581.7385      681.29658      33.973774      9.2199078      9.22           9.22           783.76962    
        39   0             -473.09488     -320.72033      8969.9357     -3653.1264     -6278.9704      1792.4328      748.88313      32.167112      9.2199078      9.22           9.22           783.76962    
        40   0             -473.11324     -407.47672      9752.4172     -3887.4544     -7087.393       2039.0662      824.68788      30.211643      9.2199078      9.22           9.22           783.76962    
        41   0             -473.12927     -497.73514      10519.315     -4072.1571     -7940.3636      2310.4703      903.99194      28.548916      9.2199078      9.22           9.22           783.76962    
        42   0             -473.14595     -610.10962      11334.358     -4235.1109     -8929.5763      2629.0233      992.93865      26.377087      9.2199078      9.22           9.22           783.76962    
        43   0             -473.1594      -725.19469      12141.155     -4272.0388     -10044.7        3033.063       1102.2071      31.191627      9.2199078      9.22           9.22           783.76962    
        44   0             -473.17314     -858.3035       12934.276     -4249.2386     -11259.948      3467.0817      1213.5795      34.430095      9.2199078      9.22           9.22           783.76962    
        45   0             -473.18467     -997.75083      13665.875     -4043.2037     -12615.924      3998.6154      1346.5159      46.468047      9.2199078      9.22           9.22           783.76962    
        46   0             -473.19525     -1134.0184      14217.009     -3718.6168     -13900.448      4529.0322      1472.9684      63.165089      9.2199078      9.22           9.22           783.76962    
        47   0             -473.20792     -1256.8141      14561.204     -3288.4251     -15043.221      5051.6301      1588.3119      86.845744      9.2199078      9.22           9.22           783.76962    
        48   0             -473.22678     -1283.2279      14421.628     -2884.225      -15387.087      5378.9076      1650.5761      115.55393      9.2199078      9.22           9.22           783.76962    
        49   0             -473.25444     -1269.3785      14097.305     -2564.4719     -15340.969      5587.0947      1671.5684      122.04056      9.2199078      9.22           9.22           783.76962    
        50   0             -473.29242     -1231.3925      13709.235     -2329.3817     -15074.031      5735.2376      1655.5011      106.03004      9.2199078      9.22           9.22           783.76962    
        51   0             -473.34125     -1182.6511      13335.567     -2176.2672     -14707.254      5872.3753      1607.3131      71.213951      9.2199078      9.22           9.22           783.76962    
        52   0             -473.39868     -1138.2075      13010.359     -2078.4905     -14346.491      6039.4279      1545.3428      29.526796      9.2199078      9.22           9.22           783.76962    
        53   0             -473.46511     -1101.2696      12715.058     -2011.5884     -14007.278      6250.0633      1476.2008     -12.354003      9.2199078      9.22           9.22           783.76962    
        54   0             -473.54108     -1074.0536      12426.125     -1968.9541     -13679.332      6498.4705      1399.9058     -55.273527      9.2199078      9.22           9.22           783.76962    
        55   0             -473.62674     -1058.7476      12128.85      -1950.268      -13354.825      6778.1612      1316.5716     -99.947436      9.2199078      9.22           9.22           783.76962    
        56   0             -473.72218     -1058.076       11813.536     -1957.9397     -13029.824      7083.9475      1226.509      -146.33067      9.2199078      9.22           9.22           783.76962    
        57   0             -473.82744     -1075.1711      11472.713     -1995.4479     -12702.778      7411.6299      1130.3619     -194.0496       9.2199078      9.22           9.22           783.76962    
        58   0             -473.94247     -1113.3244      11100.31      -2066.4578     -12373.826      7757.2085      1028.8698     -245.52285      9.2199078      9.22           9.22           783.76962    
        59   0             -474.06711     -1175.7924      10691.112     -2174.3878     -12044.102      8115.9873      920.45408     -307.59485      9.2199078      9.22           9.22           783.76962    
        60   0             -474.20106     -1265.5727      10240.77      -2322.198      -11715.29       8482.1249      801.62324     -389.05589      9.2199078      9.22           9.22           783.76962    
        61   0             -474.34383     -1385.1993      9745.8558     -2512.1972     -11389.256      8848.4501      668.61939     -500.05372      9.2199078      9.22           9.22           783.76962    
        62   0             -474.49476     -1536.6292      9203.8742     -2746.0033     -11067.759      9206.3522      520.43583     -651.15429      9.2199078      9.22           9.22           783.76962    
        63   0             -474.65307     -1721.097       8613.5794     -3024.3591     -10752.511      9545.4777      355.95819     -849.92978      9.2199078      9.22           9.22           783.76962    
        64   0             -474.81724     -1938.3026      7977.2118     -3346.0625     -10446.057      9853.3835      176.67631     -1100.0954      9.2199078      9.22           9.22           783.76962    
        65   0             -474.9852      -2186.164       7300.2367     -3707.6849     -10151.044      10116.214     -14.528542     -1395.0551      9.2199078      9.22           9.22           783.76962    
        66   0             -475.15533     -2462.1908      6587.1838     -4105.5044     -9868.2519      10320.324     -212.07332     -1718.2461      9.2199078      9.22           9.22           783.76962    
        67   0             -475.32596     -2763.0563      5843.3216     -4534.7439     -9597.7466      10450.868     -407.85388     -2046.1394      9.2199078      9.22           9.22           783.76962    
        68   0             -475.49537     -3084.7533      5074.3804     -4989.6524     -9338.988       10491.411     -591.68478     -2348.962       9.2199078      9.22           9.22           783.76962    
        69   0             -475.65788     -3414.4862      4305.2578     -5451.9709     -9096.7454      10425.925     -748.22963     -2588.465       9.2199078      9.22           9.22           783.76962    
        70   0             -475.80932     -3740.3569      3556.5703     -5904.591      -8873.0499      10245.981     -865.80556     -2735.0616      9.2199078      9.22           9.22           783.76962    
        71   0             -475.94764     -4054.06        2839.9244     -6335.276      -8666.8285      9948.6379     -938.33109     -2771.1954      9.2199078      9.22           9.22           783.76962    
        72   0             -476.07142     -4348.3814      2164.5141     -6733.1148     -8476.5436      9535.8136     -964.20526     -2689.8136      9.2199078      9.22           9.22           783.76962    
        73   0             -476.17987     -4617.5253      1536.7697     -7089.107      -8300.2387      9014.105      -945.94668     -2495.6827      9.2199078      9.22           9.22           783.76962    
        74   0             -476.2728      -4857.1999      960.27165     -7396.3634     -8135.5081      8394.3842     -889.16084     -2205.0785      9.2199078      9.22           9.22           783.76962    
        75   0             -476.35049     -5064.4108      435.9599      -7649.873      -7979.3195      7691.3659     -801.11279     -1843.9952      9.2199078      9.22           9.22           783.76962    
        76   0             -476.41361     -5237.0257     -37.552432     -7845.9018     -7827.623       6923.414      -689.26377     -1445.2148      9.2199078      9.22           9.22           783.76962    
        77   0             -476.46302     -5373.0469     -463.64088     -7980.932      -7674.5678      6113.1974     -560.09746     -1044.6949      9.2199078      9.22           9.22           783.76962    
        78   0             -476.49966     -5469.4096     -847.49229     -8049.952      -7510.7845      5290.434      -418.46001     -677.49865      9.2199078      9.22           9.22           783.76962    
        79   0             -476.52459     -5519.4751     -1196.511      -8042.9966     -7318.9176      4500.6038     -267.63859     -372.87025      9.2199078      9.22           9.22           783.76962    
        80   0             -476.53919     -5504.5481     -1522.8927     -7933.2456     -7057.5061      3837.5272     -110.57444     -145.73597      9.2199078      9.22           9.22           783.76962    
        81   0             -476.54721     -5325.0744     -1867.1539     -7575.691      -6532.3785      3690.3232      45.114095      39.212122      9.2199078      9.22           9.22           783.76962    
        82   0             -476.55563     -5043.5473     -1851.5379     -7122.659      -6156.4449      4607.2326      19.694935      58.2595        9.2199078      9.22           9.22           783.76962    
        83   0             -476.5588      -4992.2165     -1825.9095     -6851.2117     -6299.5283      4007.0392      48.58921      -39.683458      9.2199078      9.22           9.22           783.76962    
        84   0             -476.56121     -4944.3483     -1842.2567     -6568.7571     -6422.0311      3737.2042     -86.901297     -151.85664      9.2199078      9.22           9.22           783.76962    
        85   0             -476.5653      -4802.3487     -2034.6283     -6242.2573     -6130.1603      4762.94       -27.029119      42.856559      9.2199078      9.22           9.22           783.76962    
        86   0             -476.56652     -4686.1744     -2078.2223     -6084.6022     -5895.6986      5054.818      -30.849352     -30.59078       9.2199078      9.22           9.22           783.76962    
        87   0             -476.56701     -4607.026      -2120.9817     -5996.0754     -5704.0208      5052.8979      22.594013     -23.187789      9.2199078      9.22           9.22           783.76962    
        88   0             -476.56733     -4625.1893     -2185.9107     -6006.931      -5682.7263      4954.3544      5.3418535      0.10216741     9.2199078      9.22           9.22           783.76962    
        89   0             -476.56752     -4630.345      -2199.751      -5987.4053     -5703.8788      4926.6972      6.7196395      42.255615      9.2199078      9.22           9.22           783.76962    
        90   0             -476.56771     -4595.8783     -2144.2654     -5929.1033     -5714.2662      4989.7981      17.013435      25.353955      9.2199078      9.22           9.22           783.76962    
        91   0             -476.5679      -4592.9269     -2124.7226     -5908.3541     -5745.704       5060.1306     -21.755431     -63.394275      9.2199078      9.22           9.22           783.76962    
        92   0             -476.56806     -4608.7457     -2163.9795     -5908.2348     -5754.0229      5078.0268     -8.9787303     -25.388833      9.2199078      9.22           9.22           783.76962    
        93   0             -476.56828     -4558.0977     -2173.8298     -5841.7982     -5658.665       5108.3863     -7.9419464      47.727634      9.2199078      9.22           9.22           783.76962    
        94   0             -476.56847     -4523.2678     -2183.1167     -5800.2645     -5586.4221      5144.8268     -7.7965342      6.5476603      9.2199078      9.22           9.22           783.76962    
        95   0             -476.56856     -4532.4124     -2204.9616     -5809.6857     -5582.5898      5147.9435      23.778755      3.3001729      9.2199078      9.22           9.22           783.76962    
        96   0             -476.56864     -4535.891      -2187.6663     -5828.1226     -5591.8841      5157.0543     -0.53593412     0.908255       9.2199078      9.22           9.22           783.76962    
        97   0             -476.56871     -4519.7566     -2131.3442     -5831.1538     -5596.7717      5176.9253     -20.271695     -1.0735896      9.2199078      9.22           9.22           783.76962    
        98   0             -476.56876     -4522.8286     -2118.0394     -5838.2166     -5612.2298      5168.0907      4.1262523      0.83620726     9.2199078      9.22           9.22           783.76962    
        99   0             -476.56882     -4535.1486     -2130.7061     -5850.7796     -5623.9602      5162.3155      6.3243641     -20.22889       9.2199078      9.22           9.22           783.76962    
       100   0             -476.56892     -4527.2652     -2115.0145     -5859.3717     -5607.4094      5189.5056      1.3090675     -9.5122436      9.2199078      9.22           9.22           783.76962    
       101   0             -476.56899     -4513.867      -2067.5673     -5881.5485     -5592.4852      5186.9874      4.8998748      21.257916      9.2199078      9.22           9.22           783.76962    
       102   0             -476.56911     -4516.7822     -1998.0623     -5974.3969     -5577.8875      5165.4096     -8.7471283      16.038035      9.2199078      9.22           9.22           783.76962    
       103   0             -476.56919     -4521.2315     -1949.0687     -6040.7952     -5573.8304      5164.0019      5.4722551      9.6879842      9.2199078      9.22           9.22           783.76962    
       104   0             -476.56925     -4521.0275     -1894.5782     -6074.3119     -5594.1924      5162.4399      2.4294081     -12.383042      9.2199078      9.22           9.22           783.76962    
       105   0             -476.56929     -4533.1943     -1891.3975     -6084.543      -5623.6423      5154.0806     -4.7364206     -9.4717819      9.2199078      9.22           9.22           783.76962    
       106   0             -476.56931     -4542.2668     -1889.8078     -6096.3898     -5640.6027      5149.9023     -0.37983376     3.3410569      9.2199078      9.22           9.22           783.76962    
       107   0             -476.56932     -4540.6816     -1875.7333     -6106.4871     -5639.8244      5146.5224     -2.9478652     -0.51930614     9.2199078      9.22           9.22           783.76962    
       108   0             -476.56934     -4538.4183     -1845.9779     -6136.0771     -5633.1999      5137.5666      6.0285128      4.9840664      9.2199078      9.22           9.22           783.76962    
       109   0             -476.56935     -4543.5075     -1821.007      -6177.8319     -5631.6836      5131.3425      4.6383836      2.0847296      9.2199078      9.22           9.22           783.76962    
       110   0             -476.56937     -4548.7132     -1788.9284     -6219.3903     -5637.8208      5123.1983     -5.325587      -4.1854354      9.2199078      9.22           9.22           783.76962    
       111   0             -476.56938     -4552.9202     -1757.4601     -6250.099      -5651.2015      5112.6495     -0.19667615     3.977464       9.2199078      9.22           9.22           783.76962    
       112   0             -476.56939     -4559.8788     -1737.673      -6273.518      -5668.4452      5103.0236      0.087017633   -0.78852932     9.2199078      9.22           9.22           783.76962    
       113   0             -476.5694      -4564.99       -1726.5928     -6291.9022     -5676.4751      5098.5845     -1.7744563     -4.9723748      9.2199078      9.22           9.22           783.76962    
       114   0             -476.5694      -4565.9255     -1716.4928     -6302.9293     -5678.3544      5097.5972      0.62032404     0.39286504     9.2199078      9.22           9.22           783.76962    
       115   0             -476.5694      -4565.5416     -1705.52       -6312.6267     -5678.4781      5095.6227     -1.3076337      0.78116792     9.2199078      9.22           9.22           783.76962    
       116   0             -476.5694      -4566.872      -1698.1198     -6323.7547     -5678.7415      5090.8503      1.0109214      1.4728766      9.2199078      9.22           9.22           783.76962    
       117   0             -476.56941     -4569.0158     -1688.9051     -6338.4768     -5679.6656      5085.0637      3.1504091      1.2681602      9.2199078      9.22           9.22           783.76962    
       118   0             -476.56941     -4569.6879     -1677.5518     -6350.401      -5681.1109      5082.4182     -1.5284357     -2.9407677      9.2199078      9.22           9.22           783.76962    
       119   0             -476.56941     -4570.9579     -1668.669      -6359.74       -5684.4647      5084.006      -1.8319197      0.018537398    9.2199078      9.22           9.22           783.76962    
       120   0             -476.56941     -4574.5197     -1660.2141     -6372.3045     -5691.0405      5083.9403     -0.94755599     1.1333472      9.2199078      9.22           9.22           783.76962    
       121   0             -476.56941     -4575.5215     -1653.1892     -6378.817      -5694.5582      5077.7621      0.16790091    -1.7414305      9.2199078      9.22           9.22           783.76962    
       122   0             -476.56941     -4576.0255     -1646.4865     -6385.2762     -5696.3139      5071.9856      1.1976864     -0.76570527     9.2199078      9.22           9.22           783.76962    
       123   0             -476.56941     -4577.027      -1642.8277     -6391.5758     -5696.6775      5070.3524     -0.1316973      0.78066269     9.2199078      9.22           9.22           783.76962    
       124   0             -476.56941     -4577.3827     -1639.7589     -6396.7278     -5695.6615      5072.0019     -0.19996688     1.6915236      9.2199078      9.22           9.22           783.76962    
       125   0             -476.56941     -4576.6827     -1636.4943     -6399.229      -5694.3247      5074.8931      0.36713063    -0.063115973    9.2199078      9.22           9.22           783.76962    
       126   0             -476.56941     -4577.1911     -1634.7727     -6401.544      -5695.2566      5074.0281     -0.24235411    -2.2094531      9.2199078      9.22           9.22           783.76962    
       127   0             -476.56941     -4579.1023     -1633.4344     -6405.057      -5698.8155      5068.3148     -0.4043841     -0.64763707     9.2199078      9.22           9.22           783.76962    
       128   0             -476.56941     -4579.3519     -1629.8876     -6407.1399     -5701.0283      5065.909      -0.90174118     0.65842584     9.2199078      9.22           9.22           783.76962    
       129   0             -476.56941     -4579.3686     -1625.5847     -6410.6381     -5701.883       5067.1272      0.53987921     0.74231074     9.2199078      9.22           9.22           783.76962    
       130   0             -476.56941     -4580.1137     -1623.6413     -6414.8564     -5701.8434      5067.9121      0.96178865    -0.041574213    9.2199078      9.22           9.22           783.76962    
       131   0             -476.56941     -4580.0255     -1622.6139     -6416.6996     -5700.7629      5068.3149     -0.42682386    -0.35226239     9.2199078      9.22           9.22           783.76962    
       132   0             -476.56942     -4579.4705     -1622.0976     -6416.48       -5699.834       5067.8065     -0.1378117      0.84927808     9.2199078      9.22           9.22           783.76962    
       133   0             -476.56942     -4579.6553     -1622.9847     -6416.0579     -5699.9232      5066.5982      0.14159516     0.042428689    9.2199078      9.22           9.22           783.76962    
       134   0             -476.56942     -4580.0729     -1624.5362     -6415.2088     -5700.4736      5066.6527      0.11346654    -1.2528001      9.2199078      9.22           9.22           783.76962    
       135   0             -476.56942     -4579.5266     -1624.591      -6413.3947     -5700.5941      5067.9871     -0.21490414    -0.10365217     9.2199078      9.22           9.22           783.76962    
       136   0             -476.56942     -4579.2592     -1624.7046     -6412.2074     -5700.8654      5068.5298     -0.98045146     0.5981816      9.2199078      9.22           9.22           783.76962    
       137   0             -476.56942     -4579.6934     -1625.8043     -6412.3127     -5700.9632      5068.463       0.15680637     0.5425188      9.2199078      9.22           9.22           783.76962    
       138   0             -476.56942     -4579.4168     -1626.5383     -6411.4619     -5700.2502      5068.7533      0.88672831     0.048714484    9.2199078      9.22           9.22           783.76962    
       139   0             -476.56942     -4578.8358     -1627.3724     -6409.8709     -5699.264       5068.7851      0.020350492   -0.24765658     9.2199078      9.22           9.22           783.76962    
       140   0             -476.56942     -4578.7944     -1628.5804     -6409.0738     -5698.7289      5069.0059     -0.34568159     0.21159625     9.2199078      9.22           9.22           783.76962    
       141   0             -476.56942     -4578.7983     -1629.4801     -6408.4072     -5698.5074      5069.4166     -0.28998646    -0.079299573    9.2199078      9.22           9.22           783.76962    
       142   0             -476.56942     -4578.526      -1629.9587     -6407.1247     -5698.4947      5069.7522      0.28409729    -0.40223275     9.2199078      9.22           9.22           783.76962    
       143   0             -476.56942     -4578.4075     -1630.8864     -6405.532      -5698.8039      5070.2424      0.27150323     0.16382557     9.2199078      9.22           9.22           783.76962    
       144   0             -476.56942     -4578.4435     -1631.9329     -6404.5208     -5698.8767      5070.4671     -0.10753129     0.35919543     9.2199078      9.22           9.22           783.76962    
       145   0             -476.56942     -4578.2625     -1633.0569     -6403.4173     -5698.3133      5070.4732      0.1551988      0.21920567     9.2199078      9.22           9.22           783.76962    
       146   0             -476.56942     -4577.9015     -1634.0997     -6402.1883     -5697.4166      5070.7423      0.084055103   -0.23394178     9.2199078      9.22           9.22           783.76962    
       147   0             -476.56942     -4577.7408     -1634.6291     -6401.6077     -5696.9856      5071.1577     -0.1145588     -0.12139432     9.2199078      9.22           9.22           783.76962    
       148   0             -476.56942     -4577.7173     -1634.9513     -6401.2634     -5696.9371      5071.3949     -0.054986332    0.0720902      9.2199078      9.22           9.22           783.76962    
       149   0             -476.56942     -4577.7295     -1635.1857     -6400.8651     -5697.1377      5071.4794     -0.020248378   -0.069330241    9.2199078      9.22           9.22           783.76962    
       150   0             -476.56942     -4577.7099     -1635.4001     -6400.4075     -5697.322       5071.4666      0.086043231   -0.037103375    9.2199078      9.22           9.22           783.76962    
       151   0             -476.56942     -4577.694      -1635.6697     -6400.1402     -5697.2722      5071.446       0.077297743    0.15071897     9.2199078      9.22           9.22           783.76962    
       152   0             -476.56942     -4577.6012     -1636.2464     -6399.6051     -5696.9522      5071.5567     -0.16322077     0.084008802    9.2199078      9.22           9.22           783.76962    
       153   0             -476.56942     -4577.4141     -1636.7549     -6398.973      -5696.5144      5071.8737     -0.061808934   -0.067070022    9.2199078      9.22           9.22           783.76962    
       154   0             -476.56942     -4577.3557     -1637.0003     -6398.6743     -5696.3924      5072.0603      0.028390545   -0.11642314     9.2199078      9.22           9.22           783.76962    
       155   0             -476.56942     -4577.378      -1637.2162     -6398.4212     -5696.4967      5072.088      -0.0011689439   0.0068808546   9.2199078      9.22           9.22           783.76962    
       156   0             -476.56942     -4577.3697     -1637.2843     -6398.24       -5696.5848      5072.0372     -0.0093078317   0.077782477    9.2199078      9.22           9.22           783.76962    
       157   0             -476.56942     -4577.3524     -1637.3372     -6398.1249     -5696.5952      5072.0345     -0.0025649832  -0.000708333    9.2199078      9.22           9.22           783.76962    
       158   0             -476.56942     -4577.354      -1637.4596     -6398.0449     -5696.5576      5072.092       0.044093253   -0.019944367    9.2199078      9.22           9.22           783.76962    
       159   0             -476.56942     -4577.3231     -1637.6344     -6397.8946     -5696.4404      5072.2178      0.019273473    0.0017179179   9.2199078      9.22           9.22           783.76962    
       160   0             -476.56942     -4577.2625     -1637.7075     -6397.7458     -5696.3342      5072.2845     -0.042095183   -0.012826843    9.2199078      9.22           9.22           783.76962    
       161   0             -476.56942     -4577.2376     -1637.8158     -6397.6116     -5696.2853      5072.2413     -0.033478808   -0.013984658    9.2199078      9.22           9.22           783.76962    
       162   0             -476.56942     -4577.2631     -1637.9083     -6397.5534     -5696.3276      5072.1662     -0.024603693   -0.045218311    9.2199078      9.22           9.22           783.76962    
       163   0             -476.56942     -4577.2561     -1637.9323     -6397.4767     -5696.3594      5072.21        0.034418245    0.0091797984   9.2199078      9.22           9.22           783.76962    
       164   0             -476.56942     -4577.2343     -1637.9368     -6397.4149     -5696.3513      5072.3069      0.028784022    0.046450334    9.2199078      9.22           9.22           783.76962    
       165   0             -476.56942     -4577.2468     -1637.9681     -6397.4119     -5696.3605      5072.3314     -0.030455099   -0.0040012289   9.2199078      9.22           9.22           783.76962    
       166   0             -476.56942     -4577.2602     -1637.9889     -6397.43       -5696.3619      5072.303      -0.0059375659  -0.013508176    9.2199078      9.22           9.22           783.76962    
       167   0             -476.56942     -4577.241      -1637.9627     -6397.4331     -5696.3273      5072.2581      0.014971024   -0.014947892    9.2199078      9.22           9.22           783.76962    
       168   0             -476.56942     -4577.2352     -1637.909      -6397.4897     -5696.3069      5072.2098     -0.020427003   -0.015437647    9.2199078      9.22           9.22           783.76962    
       169   0             -476.56942     -4577.2551     -1637.8604     -6397.579      -5696.3258      5072.2239     -0.0099974225   0.011482966    9.2199078      9.22           9.22           783.76962    
       170   0             -476.56942     -4577.2659     -1637.8081     -6397.631      -5696.3585      5072.2574     -0.00095433125 -0.0011064719   9.2199078      9.22           9.22           783.76962    
       171   0             -476.56942     -4577.2725     -1637.756      -6397.667      -5696.3946      5072.2485      0.015847914    0.0046054566   9.2199078      9.22           9.22           783.76962    
       172   0             -476.56942     -4577.2874     -1637.7382     -6397.7027     -5696.4214      5072.2143      0.010408009    0.00980119     9.2199078      9.22           9.22           783.76962    
       173   0             -476.56942     -4577.2951     -1637.7249     -6397.7291     -5696.4312      5072.1865     -0.010729938   -0.001629989    9.2199078      9.22           9.22           783.76962    
       174   0             -476.56942     -4577.2923     -1637.6973     -6397.7559     -5696.4237      5072.1755     -0.0066451915   6.8026704e-05  9.2199078      9.22           9.22           783.76962    
       175   0             -476.56942     -4577.2913     -1637.6657     -6397.7929     -5696.4152      5072.1863     -0.0010129488  -0.010203915    9.2199078      9.22           9.22           783.76962    
       176   0             -476.56942     -4577.3005     -1637.6156     -6397.8657     -5696.4201      5072.188       0.004290142   -0.0082837283   9.2199078      9.22           9.22           783.76962    
       177   0             -476.56942     -4577.3072     -1637.5702     -6397.9161     -5696.4353      5072.1675      0.006513931    0.011551791    9.2199078      9.22           9.22           783.76962    
       178   0             -476.56942     -4577.3155     -1637.5245     -6397.9614     -5696.4605      5072.1366     -0.0070823486   0.0073448764   9.2199078      9.22           9.22           783.76962    
       179   0             -476.56942     -4577.326      -1637.5049     -6397.9926     -5696.4805      5072.1223      0.0044920924   0.0059354872   9.2199078      9.22           9.22           783.76962    
       180   0             -476.56942     -4577.3314     -1637.4903     -6398.014      -5696.4898      5072.1221      0.0059791572  -0.0033397681   9.2199078      9.22           9.22           783.76962    
       181   0             -476.56942     -4577.3289     -1637.4757     -6398.0246     -5696.4864      5072.1249     -0.003516931   -0.0061274656   9.2199078      9.22           9.22           783.76962    
       182   0             -476.56942     -4577.3284     -1637.4635     -6398.0387     -5696.4831      5072.122      -0.0028149014   0.0024800817   9.2199078      9.22           9.22           783.76962    
       183   0             -476.56942     -4577.3332     -1637.4522     -6398.0626     -5696.4847      5072.1113      3.5552628e-05  0.0014831665   9.2199078      9.22           9.22           783.76962    
       184   0             -476.56942     -4577.3339     -1637.4361     -6398.0791     -5696.4864      5072.1072      0.00084691874 -0.00454237     9.2199078      9.22           9.22           783.76962    
       185   0             -476.56942     -4577.334      -1637.422      -6398.0898     -5696.4903      5072.1072      0.0045343386   0.0034499218   9.2199078      9.22           9.22           783.76962    
       186   0             -476.56942     -4577.3399     -1637.4143     -6398.1042     -5696.5013      5072.1046     -0.0011196992   0.0059308352   9.2199078      9.22           9.22           783.76962    
       187   0             -476.56942     -4577.3442     -1637.4049     -6398.1174     -5696.5102      5072.099      -0.0026405425  -0.00095928438  9.2199078      9.22           9.22           783.76962    
       188   0             -476.56942     -4577.3427     -1637.394      -6398.1243     -5696.5098      5072.095       0.00097691181 -0.0023176327   9.2199078      9.22           9.22           783.76962    
       189   0             -476.56942     -4577.3433     -1637.3866     -6398.1347     -5696.5084      5072.092      -0.00059452694 -0.0019194022   9.2199078      9.22           9.22           783.76962    
       190   0             -476.56942     -4577.3445     -1637.3831     -6398.1427     -5696.5078      5072.0908     -0.00028992337  0.0012396903   9.2199078      9.22           9.22           783.76962    
       191   0             -476.56942     -4577.3439     -1637.3794     -6398.1459     -5696.5065      5072.0918     -2.1837767e-05  0.00079462923  9.2199078      9.22           9.22           783.76962    
       192   0             -476.56942     -4577.3438     -1637.3782     -6398.1464     -5696.5068      5072.0934      0.00073026359 -0.00085388341  9.2199078      9.22           9.22           783.76962    
       193   0             -476.56942     -4577.3459     -1637.3785     -6398.148      -5696.5111      5072.0912      0.0017170929   0.0003661603   9.2199078      9.22           9.22           783.76962    
       194   0             -476.56942     -4577.3472     -1637.3762     -6398.1504     -5696.5151      5072.0878     -0.00083730715  0.00047145392  9.2199078      9.22           9.22           783.76962    
       195   0             -476.56942     -4577.3469     -1637.3706     -6398.1541     -5696.516       5072.0867     -0.00099977715  0.00074360472  9.2199078      9.22           9.22           783.76962    
       196   0             -476.56942     -4577.3472     -1637.3682     -6398.1582     -5696.5152      5072.0862      2.4410759e-05 -0.00093904396  9.2199078      9.22           9.22           783.76962    
       197   0             -476.56942     -4577.3471     -1637.3686     -6398.1582     -5696.5145      5072.0866     -0.00059505334 -0.00079531106  9.2199078      9.22           9.22           783.76962    
       198   0             -476.56942     -4577.3468     -1637.3695     -6398.1577     -5696.5131      5072.0876      0.00011012115  0.00044452293  9.2199078      9.22           9.22           783.76962    
       199   0             -476.56942     -4577.3463     -1637.3707     -6398.1565     -5696.5116      5072.0887      0.00014662887  0.0002587636   9.2199078      9.22           9.22           783.76962    
       200   0             -476.56942     -4577.3453     -1637.3739     -6398.153      -5696.5091      5072.0902      0.00011645221 -0.00040114421  9.2199078      9.22           9.22           783.76962    
       201   0             -476.56942     -4577.3445     -1637.3795     -6398.147      -5696.5071      5072.0911      0.0014787956   0.0012872233   9.2199078      9.22           9.22           783.76962    
       202   0             -476.56942     -4577.3436     -1637.3877     -6398.137      -5696.5062      5072.0919     -0.00033314624  0.00071295155  9.2199078      9.22           9.22           783.76962    
       203   0             -476.56942     -4577.3425     -1637.3917     -6398.1299     -5696.506       5072.0939      0.00046354754  0.00091459808  9.2199078      9.22           9.22           783.76962    
       204   0             -476.56942     -4577.3424     -1637.3944     -6398.1266     -5696.5062      5072.096      -0.00036235722 -0.0011038385   9.2199078      9.22           9.22           783.76962    
       205   0             -476.56942     -4577.3424     -1637.3958     -6398.1253     -5696.5059      5072.0967     -0.0002572925  -0.00044428974  9.2199078      9.22           9.22           783.76962    
       206   0             -476.56942     -4577.3421     -1637.3962     -6398.1247     -5696.5053      5072.0966     -0.00010580794  0.00012922587  9.2199078      9.22           9.22           783.76962    
       207   0             -476.56942     -4577.342      -1637.3963     -6398.1248     -5696.505       5072.0963      3.1472792e-05  3.4180178e-05  9.2199078      9.22           9.22           783.76962    
       208   0             -476.56942     -4577.3421     -1637.3963     -6398.1251     -5696.5048      5072.0961      4.9979555e-05 -4.4121545e-05  9.2199078      9.22           9.22           783.76962    
       209   0             -476.56942     -4577.342      -1637.3955     -6398.126      -5696.5044      5072.0962      1.9446495e-05  9.8551842e-05  9.2199078      9.22           9.22           783.76962    
       210   0             -476.56942     -4577.3421     -1637.393      -6398.1289     -5696.5043      5072.0963     -0.00010417794  0.0002733122   9.2199078      9.22           9.22           783.76962    
       211   0             -476.56942     -4577.3427     -1637.3905     -6398.1323     -5696.5052      5072.0953     -7.0739406e-05  8.1744931e-05  9.2199078      9.22           9.22           783.76962    
       212   0             -476.56942     -4577.343      -1637.3897     -6398.1332     -5696.5061      5072.0944      0.00010094888 -3.0445083e-05  9.2199078      9.22           9.22           783.76962    
       213   0             -476.56942     -4577.3431     -1637.3895     -6398.1332     -5696.5066      5072.0941      2.6124682e-06 -6.3325226e-05  9.2199078      9.22           9.22           783.76962    
       214   0             -476.56942     -4577.3432     -1637.3895     -6398.1332     -5696.5069      5072.0941     -3.1560435e-05  8.5720799e-06  9.2199078      9.22           9.22           783.76962    
       215   0             -476.56942     -4577.3432     -1637.3895     -6398.1332     -5696.5069      5072.0941     -4.1377606e-06  8.9023522e-06  9.2199078      9.22           9.22           783.76962    
       216   0             -476.56942     -4577.3432     -1637.3895     -6398.1332     -5696.5069      5072.0942      5.5113678e-06 -9.7076062e-06  9.2199078      9.22           9.22           783.76962    
       217   0             -476.56942     -4577.3432     -1637.3895     -6398.1332     -5696.5069      5072.0942      5.2425428e-06 -1.4595475e-06  9.2199078      9.22           9.22           783.76962    
       218   0             -476.56942     -4577.3432     -1637.3895     -6398.1332     -5696.5069      5072.0941     -3.6004772e-06  6.0169197e-06  9.2199078      9.22           9.22           783.76962    
       219   0             -476.56942     -4577.3432     -1637.3895     -6398.1332     -5696.5069      5072.0941     -9.9229276e-07  3.4786101e-07  9.2199078      9.22           9.22           783.76962    
       220   0             -476.56942     -4577.3432     -1637.3895     -6398.1332     -5696.5069      5072.0941      1.0803808e-05 -1.7775242e-05  9.2199078      9.22           9.22           783.76962    
       221   0             -476.56942     -4577.3432     -1637.3895     -6398.1332     -5696.5069      5072.0942     -3.4584011e-06 -9.2906318e-06  9.2199078      9.22           9.22           783.76962    
       222   0             -476.56942     -4577.3432     -1637.3896     -6398.1332     -5696.5069      5072.0942     -1.5932082e-05  8.1158402e-06  9.2199078      9.22           9.22           783.76962    
       223   0             -476.56942     -4577.3432     -1637.3895     -6398.1331     -5696.5069      5072.0942     -3.8376773e-06  3.840198e-06   9.2199078      9.22           9.22           783.76962    
       224   0             -476.56942     -4577.3432     -1637.3895     -6398.1331     -5696.5069      5072.0941      2.8283561e-06 -2.6551961e-06  9.2199078      9.22           9.22           783.76962    
       225   0             -476.56942     -4577.3432     -1637.3895     -6398.1331     -5696.5069      5072.0941      8.2106867e-07 -5.8545174e-07  9.2199078      9.22           9.22           783.76962    
       226   0             -476.56942     -4577.3432     -1637.3895     -6398.1331     -5696.5069      5072.0941     -2.1300959e-06  2.9957716e-06  9.2199078      9.22           9.22           783.76962    
       227   0             -476.56942     -4577.3432     -1637.3895     -6398.1331     -5696.5069      5072.0942     -2.4578187e-07 -6.972485e-07   9.2199078      9.22           9.22           783.76962    
       228   0             -476.56942     -4577.3432     -1637.3896     -6398.1331     -5696.5069      5072.0942      2.9155184e-06 -1.8080494e-06  9.2199078      9.22           9.22           783.76962    
       229   0             -476.56942     -4577.3432     -1637.3896     -6398.1331     -5696.5069      5072.0942     -9.3227904e-07  4.0787776e-07  9.2199078      9.22           9.22           783.76962    
       230   0             -476.56942     -4577.3432     -1637.3896     -6398.1331     -5696.5069      5072.0942     -1.1570412e-06 -3.509303e-07   9.2199078      9.22           9.22           783.76962    
       231   0             -476.56942     -4577.3432     -1637.3896     -6398.1331     -5696.5069      5072.0942      8.3404437e-08 -3.9836533e-07  9.2199078      9.22           9.22           783.76962    
       232   0             -476.56942     -4577.3432     -1637.3896     -6398.1331     -5696.5069      5072.0942      2.3022927e-07  7.1497065e-08  9.2199078      9.22           9.22           783.76962    
       233   0             -476.56942     -4577.3432     -1637.3896     -6398.1331     -5696.5069      5072.0942      4.1269556e-09  1.0958104e-07  9.2199078      9.22           9.22           783.76962    
       234   0             -476.56942     -4577.3432     -1637.3896     -6398.1331     -5696.5069      5072.0942     -8.5185372e-08 -1.1111523e-08  9.2199078      9.22           9.22           783.76962    
       235   0             -476.56942     -4577.3432     -1637.3896     -6398.1331     -5696.5069      5072.0942     -3.1672953e-08 -9.1442656e-08  9.2199078      9.22           9.22           783.76962    
       236   0             -476.56942     -4577.3432     -1637.3896     -6398.1331     -5696.5069      5072.0942      6.6228365e-08 -6.4272533e-09  9.2199078      9.22           9.22           783.76962    
       237   0             -476.56942     -4577.3432     -1637.3896     -6398.1331     -5696.5069      5072.0942     -8.2212632e-08  1.9532336e-07  9.2199078      9.22           9.22           783.76962    
       238   0             -476.56942     -4577.3432     -1637.3896     -6398.1331     -5696.5069      5072.0942     -1.3595045e-07  3.9219181e-08  9.2199078      9.22           9.22           783.76962    
       239   0             -476.56942     -4577.3432     -1637.3896     -6398.1331     -5696.5069      5072.0942      3.0075732e-08 -4.0993257e-08  9.2199078      9.22           9.22           783.76962    
       240   0             -476.56942     -4577.3432     -1637.3896     -6398.1331     -5696.5069      5072.0942      4.3655411e-08 -2.9719465e-08  9.2199078      9.22           9.22           783.76962    
       241   0             -476.56942     -4577.3432     -1637.3896     -6398.1331     -5696.5069      5072.0942     -8.5438872e-09  9.3465244e-09  9.2199078      9.22           9.22           783.76962    
       242   0             -476.56942     -4577.3432     -1637.3896     -6398.1331     -5696.5069      5072.0942     -3.4413188e-09  1.9293107e-08  9.2199078      9.22           9.22           783.76962    
       243   0             -476.56942     -4577.3432     -1637.3896     -6398.1331     -5696.5069      5072.0942     -5.6297721e-09 -6.1748837e-09  9.2199078      9.22           9.22           783.76962    
       244   0             -476.56942     -4577.3432     -1637.3896     -6398.1331     -5696.5069      5072.0942      4.2095587e-09  1.6381326e-09  9.2199078      9.22           9.22           783.76962    
       245   0             -476.56942     -4577.3432     -1637.3896     -6398.1331     -5696.5069      5072.0942     -1.876229e-09  -1.9179632e-09  9.2199078      9.22           9.22           783.76962    
       246   0             -476.56942     -4577.3432     -1637.3896     -6398.1331     -5696.5069      5072.0942     -7.313568e-10   1.937481e-09   9.2199078      9.22           9.22           783.76962    
       247   0             -476.56942     -4577.3432     -1637.3896     -6398.1331     -5696.5069      5072.0942     -6.3442034e-10 -1.1497339e-09  9.2199078      9.22           9.22           783.76962    
       248   0             -476.56942     -4577.3432     -1637.3896     -6398.1331     -5696.5069      5072.0942      4.1600585e-09  2.7036677e-09  9.2199078      9.22           9.22           783.76962    
       249   0             -476.56942     -4577.3432     -1637.3896     -6398.1331     -5696.5069      5072.0942     -1.4148978e-10  2.3353261e-10  9.2199078      9.22           9.22           783.76962    
       250   0             -476.56942     -4577.3432     -1637.3896     -6398.1331     -5696.5069      5072.0942     -1.3110216e-09 -4.6570352e-10  9.2199078      9.22           9.22           783.76962    
       251   0             -476.56942     -4577.3432     -1637.3896     -6398.1331     -5696.5069      5072.0942     -4.2227786e-10 -7.5620084e-10  9.2199078      9.22           9.22           783.76962    
       252   0             -476.56942     -4577.3432     -1637.3896     -6398.1331     -5696.5069      5072.0942      4.5356519e-10 -2.4124895e-10  9.2199078      9.22           9.22           783.76962    
       253   0             -476.56942     -4577.3432     -1637.3896     -6398.1331     -5696.5069      5072.0942      2.3910355e-10  2.632632e-11   9.2199078      9.22           9.22           783.76962    
       254   0             -476.56942     -4577.3432     -1637.3896     -6398.1331     -5696.5069      5072.0942     -5.2188099e-11 -1.3390111e-11  9.2199078      9.22           9.22           783.76962    
Loop time of 0.237841 on 1 procs for 249 steps with 64 atoms

99.7% CPU use with 1 MPI tasks x no OpenMP threads

Minimization stats:
  Stopping criterion = force tolerance
  Energy initial, next-to-last, final = 
     -472.767999903458    -476.5694159605  -476.569415960501
  Force two-norm initial, final = 0.00014102062 4.6873691e-13
  Force max component initial, final = 2.7929961e-05 9.6502667e-14
  Final line search alpha, max atom move = 1 9.6502667e-14
  Iterations, force evaluations = 249 427

MPI task timing breakdown:
Section |  min time  |  avg time  |  max time  |%varavg| %total
---------------------------------------------------------------
Pair    | 0.23566    | 0.23566    | 0.23566    |   0.0 | 99.08
Neigh   | 0          | 0          | 0          |   0.0 |  0.00
Comm    | 0.00064242 | 0.00064242 | 0.00064242 |   0.0 |  0.27
Output  | 0.00099575 | 0.00099575 | 0.00099575 |   0.0 |  0.42
Modify  | 0          | 0          | 0          |   0.0 |  0.00
Other   |            | 0.0005406  |            |       |  0.23

Nlocal:             64 ave          64 max          64 min
Histogram: 1 0 0 0 0 0 0 0 0 0
Nghost:            665 ave         665 max         665 min
Histogram: 1 0 0 0 0 0 0 0 0 0
Neighs:           2560 ave        2560 max        2560 min
Histogram: 1 0 0 0 0 0 0 0 0 0
FullNghs:         5120 ave        5120 max        5120 min
Histogram: 1 0 0 0 0 0 0 0 0 0

Total # of neighbors = 5120
Ave neighs/atom = 80
Neighbor list builds = 0
Dangerous builds = 0
Reading restart file ...
  restart file = 23 Jun 2022, LAMMPS = 23 Jun 2022
  restoring atom style atomic from restart
  triclinic box = (-4.61 -4.61 -4.61) to (4.61 4.61 4.61) with tilt (0 0 0)
  1 by 1 by 1 MPI processor grid
  pair style meam stores no restart info
  64 atoms
  read_restart CPU = 0.000 seconds
Reading MEAM library file library.meam with DATE: 2015-02-12
Changing box ...
  triclinic box = (-4.61 -4.61 -4.61) to (4.6100922 4.61 4.61) with tilt (0 0 0)
  triclinic box = (-4.61 -4.61 -4.61) to (4.6100922 4.61 4.61) with tilt (0 0 0)
  triclinic box = (-4.61 -4.61 -4.61) to (4.6100922 4.61 4.61) with tilt (0 0 0)
Neighbor list info ...
  update every 1 steps, delay 0 steps, check yes
  max neighbors/atom: 2000, page size: 100000
  master list distance cutoff = 6.26
  ghost atom cutoff = 6.26
  2 neighbor lists, perpetual/occasional/extra = 2 0 0
  (1) pair meam, perpetual
      attributes: full, newton on
      pair build: full/nsq
      stencil: none
      bin: none
  (2) pair meam, perpetual, half/full from (1)
      attributes: half, newton on
      pair build: halffull/newton
      stencil: none
      bin: none
Setting up cg style minimization ...
  Unit style    : metal
  Current step  : 5
Per MPI rank memory allocation (min/avg/max) = 9.909 | 9.909 | 9.909 Mbytes
   Step          Temp          PotEng         Press           Pxx            Pyy            Pzz            Pxy            Pxz            Pyz             Lx             Ly             Lz           Volume    
         5   0             -472.768       -21.502842     -50.467165     -7.0206809     -7.0206807     -2.1299655e-07  1.6482995e-07  1.86117e-07    9.2200922      9.22           9.22           783.78529    
         6   0             -472.768       -21.502844     -50.467167     -7.0206823     -7.0206825      4.0453152e-09  8.2084564e-08  1.0994695e-07  9.2200922      9.22           9.22           783.78529    
         7   0             -472.768       -21.502844     -50.467167     -7.0206825     -7.0206826      1.3063482e-08  3.3363754e-08  1.5587593e-08  9.2200922      9.22           9.22           783.78529    
         8   0             -472.768       -21.502844     -50.467167     -7.0206826     -7.0206826      1.0872054e-08  1.5299905e-08  5.9532604e-09  9.2200922      9.22           9.22           783.78529    
         9   0             -472.768       -21.502844     -50.467167     -7.0206826     -7.0206826      9.0972778e-09 -1.16438e-09    2.803697e-09   9.2200922      9.22           9.22           783.78529    
        10   0             -472.768       -21.502844     -50.467167     -7.0206826     -7.0206826      1.6059157e-08 -3.0112792e-09 -4.0473638e-09  9.2200922      9.22           9.22           783.78529    
        11   0             -472.768       -21.502844     -50.467167     -7.0206826     -7.0206826      1.0925154e-08  1.9962792e-09 -2.0892694e-09  9.2200922      9.22           9.22           783.78529    
        12   0             -472.768       -21.502844     -50.467167     -7.0206826     -7.0206826      4.6843934e-09  1.7440802e-08  6.9963065e-09  9.2200922      9.22           9.22           783.78529    
        13   0             -472.768       -21.502844     -50.467165     -7.020683      -7.0206834     -8.6487294e-08  5.2586993e-07  1.4288415e-07  9.2200922      9.22           9.22           783.78529    
        14   0             -472.768       -21.502696     -50.465997     -7.0209253     -7.0211655      4.424009e-05   0.00026272482  8.1831413e-05  9.2200922      9.22           9.22           783.78529    
        15   0             -472.76814     -19.540878     -34.887844     -10.275891     -13.458898      0.71740308     3.4240588      1.0763837      9.2200922      9.22           9.22           783.78529    
        16   0             -472.76855     -13.748221      11.223494     -19.924958     -32.543199      2.9108316      13.541586      4.2974987      9.2200922      9.22           9.22           783.78529    
        17   0             -472.76923     -4.2205037      87.657508     -36.008427     -64.310593      6.6568278      30.283696      9.6982573      9.2200922      9.22           9.22           783.78529    
        18   0             -472.77014      8.8765158      194.09281     -58.616368     -108.8469       11.999796      53.556314      17.299135      9.2200922      9.22           9.22           783.78529    
        19   0             -472.77128      25.307306      330.11842     -87.904346     -166.29216      18.961548      83.237134      27.105776      9.2200922      9.22           9.22           783.78529    
        20   0             -472.7726       44.750688      495.27233     -124.13697     -236.88329      27.564988      119.1552       39.094892      9.2200922      9.22           9.22           783.78529    
        21   0             -472.77415      66.698606      689.24709     -167.9898      -321.16148      38.025008      160.95592      53.159554      9.2200922      9.22           9.22           783.78529    
        22   0             -472.77637      89.67083       913.36403     -222.76507     -421.58648      52.082119      207.09389      68.681051      9.2200922      9.22           9.22           783.78529    
        23   0             -472.78336      103.90515      1173.5587     -310.35872     -551.48451      84.61964       242.93664      79.88852       9.2200922      9.22           9.22           783.78529    
        24   0             -472.80268      77.923906      1311.9771     -424.86309     -653.34226      175.51211      177.01674      51.966458      9.2200922      9.22           9.22           783.78529    
        25   0             -472.82137      63.590736      1498.9706     -536.11524     -772.08313      224.32835      151.89561      23.883569      9.2200922      9.22           9.22           783.78529    
        26   0             -472.83892      41.989122      1722.7666     -681.79726     -915.00198      303.43594      152.80865      26.841956      9.2200922      9.22           9.22           783.78529    
        27   0             -472.85587      36.208954      1998.8231     -813.1522      -1077.044       308.3685       181.0163       19.683446      9.2200922      9.22           9.22           783.78529    
        28   0             -472.87299      23.374926      2332.9938     -982.69545     -1280.1736      391.72725      201.2368       23.759406      9.2200922      9.22           9.22           783.78529    
        29   0             -472.8897       21.709394      2716.8163     -1148.5198     -1503.1683      416.09737      238.86427      22.892699      9.2200922      9.22           9.22           783.78529    
        30   0             -472.90783      8.4016667      3129.4281     -1341.5469     -1762.6762      514.27843      263.88306      26.126567      9.2200922      9.22           9.22           783.78529    
        31   0             -472.92775     -5.7955559      3620.6251     -1562.4237     -2075.5881      600.33928      301.92269      28.075457      9.2200922      9.22           9.22           783.78529    
        32   0             -472.94841     -21.82391       4166.8695     -1799.2794     -2433.0619      687.49364      348.02834      29.970878      9.2200922      9.22           9.22           783.78529    
        33   0             -472.96977     -47.861356      4735.9942     -2051.7641     -2827.8142      806.18633      391.79699      32.426875      9.2200922      9.22           9.22           783.78529    
        34   0             -472.99165     -80.137534      5357.8867     -2321.0751     -3277.2242      927.08902      443.36195      33.865989      9.2200922      9.22           9.22           783.78529    
        35   0             -473.013       -117.20305      6013.8425     -2593.4884     -3771.9633      1063.4781      498.26472      34.992161      9.2200922      9.22           9.22           783.78529    
        36   0             -473.03468     -166.29473      6691.0474     -2873.9436     -4315.988       1217.7287      554.42246      35.18859       9.2200922      9.22           9.22           783.78529    
        37   0             -473.05608     -224.81059      7412.6421     -3158.8722     -4928.2018      1390.4625      616.57864      34.656254      9.2200922      9.22           9.22           783.78529    
        38   0             -473.07559     -287.75813      8140.5074     -3422.4888     -5581.2929      1581.2992      681.26401      33.837247      9.2200922      9.22           9.22           783.78529    
        39   0             -473.09495     -363.5997       8880.2542     -3677.3629     -6293.6903      1791.7834      748.81313      32.021202      9.2200922      9.22           9.22           783.78529    
        40   0             -473.11332     -450.30645      9663.7949     -3913.1735     -7101.5407      2038.1152      824.56781      30.042496      9.2200922      9.22           9.22           783.78529    
        41   0             -473.12935     -540.50794      10432.233     -4099.4219     -7954.3352      2309.4542      903.89953      28.373666      9.2200922      9.22           9.22           783.78529    
        42   0             -473.146       -652.60356      11247.795     -4263.8792     -8941.7266      2627.4519      992.74341      26.195589      9.2200922      9.22           9.22           783.78529    
        43   0             -473.15945     -767.56873      12056.388     -4304.4376     -10054.657      3030.012       1101.6506      30.829604      9.2200922      9.22           9.22           783.78529    
        44   0             -473.17317     -900.537        12852.15      -4285.1357     -11268.626      3463.3923      1212.9337      33.981942      9.2200922      9.22           9.22           783.78529    
        45   0             -473.1847      -1040.2443      13589.196     -4083.2283     -12626.701      3995.8646      1346.1536      46.073346      9.2200922      9.22           9.22           783.78529    
        46   0             -473.19527     -1176.8792      14147.436     -3762.9473     -13915.126      4527.4889      1472.8606      62.771022      9.2200922      9.22           9.22           783.78529    
        47   0             -473.20794     -1299.2294      14494.205     -3334.3434     -15057.55       5051.4475      1588.5615      86.767323      9.2200922      9.22           9.22           783.78529    
        48   0             -473.2268      -1327.3777      14362.521     -2930.1927     -15414.461      5382.3105      1651.4712      115.34292      9.2200922      9.22           9.22           783.78529    
        49   0             -473.25447     -1312.202       14037.834     -2611.583      -15362.857      5588.9023      1671.6455      121.44314      9.2200922      9.22           9.22           783.78529    
        50   0             -473.29251     -1273.1548      13649.823     -2378.1134     -15091.174      5735.9775      1654.8465      105.35062      9.2200922      9.22           9.22           783.78529    
        51   0             -473.34135     -1224.1384      13276.23      -2225.528      -14723.117      5873.1202      1606.617       70.620804      9.2200922      9.22           9.22           783.78529    
        52   0             -473.39882     -1179.4243      12951.858     -2127.9296     -14362.202      6040.5883      1544.6081      29.106773      9.2200922      9.22           9.22           783.78529    
        53   0             -473.46527     -1142.3254      12657.64      -2061.3597     -14023.257      6251.4813      1475.357      -12.685933      9.2200922      9.22           9.22           783.78529    
        54   0             -473.54124     -1114.9899      12369.833     -2019.0825     -13695.721      6500.0587      1398.9893     -55.52745       9.2200922      9.22           9.22           783.78529    
        55   0             -473.62691     -1099.5685      12073.668     -2000.7603     -13371.613      6779.8659      1315.6151     -100.10694      9.2200922      9.22           9.22           783.78529    
        56   0             -473.72235     -1098.7849      11759.392     -2008.8106     -13046.936      7085.7432      1225.5325     -146.38638      9.2200922      9.22           9.22           783.78529    
        57   0             -473.82761     -1115.7714      11419.55      -2046.7066     -12720.157      7413.4963      1129.3891     -193.99114      9.2200922      9.22           9.22           783.78529    
        58   0             -473.94265     -1153.8214      11048.071     -2118.1145     -12391.421      7759.1392      1027.9208     -245.33525      9.2200922      9.22           9.22           783.78529    
        59   0             -474.06731     -1216.1957      10639.74      -2226.4554     -12061.871      8117.9849      919.59729     -307.26288      9.2200922      9.22           9.22           783.78529    
        60   0             -474.20128     -1305.8977      10190.202     -2374.6924     -11733.203      8484.2016      800.91362     -388.56815      9.2200922      9.22           9.22           783.78529    
        61   0             -474.34407     -1425.4697      9696.023      -2565.1371     -11407.295      8850.6306      668.10298     -499.41125      9.2200922      9.22           9.22           783.78529    
        62   0             -474.49504     -1576.8781      9154.6951     -2799.4088     -11085.921      9208.6761      520.13051     -650.38828      9.2200922      9.22           9.22           783.78529    
        63   0             -474.65338     -1761.3682      8564.9575     -3078.2535     -10770.808      9547.9969      355.86062     -849.12719      9.2200922      9.22           9.22           783.78529    
        64   0             -474.8176      -1978.6783      7928.954      -3400.51       -10464.479      9856.1867      176.7529      -1099.3766      9.2200922      9.22           9.22           783.78529    
        65   0             -474.98563     -2226.7127      7252.1979     -3762.7073     -10169.629      10119.319     -14.304905     -1394.3499      9.2200922      9.22           9.22           783.78529    
        66   0             -475.15583     -2502.9836      6539.1991     -4161.1114     -9887.0387      10323.716     -211.72606     -1717.4143      9.2200922      9.22           9.22           783.78529    
        67   0             -475.32653     -2804.1634      5795.2103     -4590.9304     -9616.77        10454.491     -407.40194     -2044.9836      9.2200922      9.22           9.22           783.78529    
        68   0             -475.49601     -3126.2378      5025.9593     -5046.393      -9358.2796      10495.155     -591.13552     -2347.2568      9.2200922      9.22           9.22           783.78529    
        69   0             -475.6586      -3456.4193      4256.2919     -5509.2491     -9116.3006      10429.609     -747.59089     -2586.025       9.2200922      9.22           9.22           783.78529    
        70   0             -475.81009     -3782.7464      3506.951      -5962.3132     -8892.877       10249.359     -865.0469      -2731.7279      9.2200922      9.22           9.22           783.78529    
        71   0             -475.94845     -4096.8848      2789.5983     -6393.3317     -8686.9209      9951.4368     -937.41274     -2766.8754      9.2200922      9.22           9.22           783.78529    
        72   0             -476.07223     -4391.5963      2113.4833     -6791.3909     -8496.8815      9537.7538     -963.08686     -2684.5189      9.2200922      9.22           9.22           783.78529    
        73   0             -476.18066     -4661.0677      1485.0877     -7147.4998     -8320.7911      9014.9189     -944.59809     -2489.5549      9.2200922      9.22           9.22           783.78529    
        74   0             -476.27353     -4900.996       908.03199     -7454.7867     -8156.2332      8393.837      -887.57112     -2198.3903      9.2200922      9.22           9.22           783.78529    
        75   0             -476.35116     -5108.3812      383.28012     -7708.2601     -8000.1638      7689.2746     -799.29663     -1837.1256      9.2200922      9.22           9.22           783.78529    
        76   0             -476.41419     -5281.0869     -90.547753     -7904.1977     -7848.5151      6919.6706     -687.26317     -1438.6016      9.2200922      9.22           9.22           783.78529    
        77   0             -476.46348     -5417.1065     -516.84136     -8039.0736     -7695.4045      6107.8035     -557.97796     -1038.7712      9.2200922      9.22           9.22           783.78529    
        78   0             -476.50001     -5513.3529     -900.8331      -8107.8302     -7531.3954      5283.5686     -416.30401     -672.62454      9.2200922      9.22           9.22           783.78529    
        79   0             -476.52482     -5563.1217     -1250.0362     -8100.3602     -7338.9688      4492.8123     -265.53346     -369.25646      9.2200922      9.22           9.22           783.78529    
        80   0             -476.53931     -5547.452      -1576.9685     -7989.3038     -7076.0837      3830.5271     -108.60049     -143.30854      9.2200922      9.22           9.22           783.78529    
        81   0             -476.54732     -5363.8513     -1924.5273     -7624.2381     -6542.7885      3696.7437      46.770627      41.874532      9.2200922      9.22           9.22           783.78529    
        82   0             -476.55578     -5083.5544     -1911.6305     -7166.6144     -6172.4182      4606.9406      21.263178      57.517961      9.2200922      9.22           9.22           783.78529    
        83   0             -476.55883     -5034.7427     -1887.1843     -6901.0554     -6315.9884      4023.8211      45.072969     -34.929088      9.2200922      9.22           9.22           783.78529    
        84   0             -476.56121     -4989.7434     -1903.0737     -6619.9446     -6446.2119      3740.4122     -89.015803     -148.79956      9.2200922      9.22           9.22           783.78529    
        85   0             -476.56522     -4848.8196     -2102.4196     -6291.8876     -6152.1517      4781.7682     -21.459409      43.944374      9.2200922      9.22           9.22           783.78529    
        86   0             -476.56654     -4724.6695     -2155.3771     -6115.3337     -5903.2979      5104.2223     -27.705574     -25.894242      9.2200922      9.22           9.22           783.78529    
        87   0             -476.56708     -4644.2311     -2197.7954     -6019.066      -5715.8318      5063.1035      19.633655     -20.738256      9.2200922      9.22           9.22           783.78529    
        88   0             -476.56741     -4664.3611     -2264.4937     -6029.0045     -5699.585       4944.1048      2.1208271     -2.693207       9.2200922      9.22           9.22           783.78529    
        89   0             -476.5676      -4669.6061     -2277.5417     -6010.4404     -5720.8361      4932.6424      10.74188       40.58223       9.2200922      9.22           9.22           783.78529    
        90   0             -476.56777     -4635.5503     -2222.1759     -5954.7548     -5729.7201      5016.1961      14.744252      19.667845      9.2200922      9.22           9.22           783.78529    
        91   0             -476.56793     -4636.7963     -2208.7388     -5941.4007     -5760.2494      5077.2152     -22.588017     -57.341755      9.2200922      9.22           9.22           783.78529    
        92   0             -476.56808     -4650.9306     -2243.2976     -5941.4544     -5768.04        5074.9375     -7.4857303     -18.262419      9.2200922      9.22           9.22           783.78529    
        93   0             -476.56829     -4603.1282     -2249.8689     -5878.1328     -5681.3828      5085.0177     -9.3074034      39.330284      9.2200922      9.22           9.22           783.78529    
        94   0             -476.56849     -4567.4412     -2258.3568     -5835.7371     -5608.2297      5132.1713     -0.42666336     5.1481446      9.2200922      9.22           9.22           783.78529    
        95   0             -476.56858     -4576.2432     -2280.2519     -5845.5215     -5602.9562      5147.2628      24.344778      5.2234537      9.2200922      9.22           9.22           783.78529    
        96   0             -476.56867     -4578.169      -2263.2475     -5863.3118     -5607.9477      5169.1229     -3.7313837      0.34280009     9.2200922      9.22           9.22           783.78529    
        97   0             -476.56874     -4561.7496     -2209.2419     -5865.0936     -5610.9132      5188.9687     -19.511079     -0.19344244     9.2200922      9.22           9.22           783.78529    
[...]
       173   0             -476.56943     -4598.7075     -1683.7008     -6406.4078     -5706.0139      5070.5907     -0.0064557894  -0.0016237907   9.22           9.22           9.22           783.77745    
       174   0             -476.56943     -4598.7048     -1683.6736     -6406.4334     -5706.0073      5070.5683     -0.0088303428  -0.003632783    9.22           9.22           9.22           783.77745    
       175   0             -476.56943     -4598.7049     -1683.6479     -6406.4657     -5706.0013      5070.5742     -0.00045054899 -0.0054116714   9.22           9.22           9.22           783.77745    
       176   0             -476.56943     -4598.7121     -1683.6044     -6406.5283     -5706.0037      5070.5831      0.0013163695  -0.010713536    9.22           9.22           9.22           783.77745    
       177   0             -476.56943     -4598.7183     -1683.5578     -6406.5818     -5706.0155      5070.5728      0.0073551873   0.0067510181   9.22           9.22           9.22           783.77745    
       178   0             -476.56943     -4598.7254     -1683.5129     -6406.6243     -5706.0391      5070.5427     -0.002255654    0.0097290656   9.22           9.22           9.22           783.77745    
       179   0             -476.56943     -4598.7365     -1683.494      -6406.6548     -5706.0608      5070.5205      0.00017367962  0.0038282594   9.22           9.22           9.22           783.77745    
       180   0             -476.56943     -4598.7427     -1683.4808     -6406.6756     -5706.0718      5070.5149      0.0063867631  -3.0842347e-05  9.22           9.22           9.22           783.77745    
       181   0             -476.56943     -4598.7405     -1683.4669     -6406.6858     -5706.0688      5070.5199     -0.0023179776  -0.0061030941   9.22           9.22           9.22           783.77745    
       182   0             -476.56943     -4598.739      -1683.4527     -6406.701      -5706.0633      5070.5221     -0.0029280769   0.0012140404   9.22           9.22           9.22           783.77745    
       183   0             -476.56943     -4598.7433     -1683.4418     -6406.7241     -5706.0639      5070.5155      0.00069620594  0.002472753    9.22           9.22           9.22           783.77745    
       184   0             -476.56943     -4598.7443     -1683.4282     -6406.7386     -5706.0662      5070.5093     -0.00012128141 -0.00390961     9.22           9.22           9.22           783.77745    
       185   0             -476.56943     -4598.7447     -1683.414      -6406.7488     -5706.0712      5070.5044      0.0037804971   0.0022858198   9.22           9.22           9.22           783.77745    
       186   0             -476.56943     -4598.751      -1683.4069     -6406.763      -5706.083       5070.4995      0.00042817154  0.0060399413   9.22           9.22           9.22           783.77745    
       187   0             -476.56943     -4598.7543     -1683.398      -6406.775      -5706.09        5070.497      -0.0031718019  -0.0016556262   9.22           9.22           9.22           783.77745    
       188   0             -476.56943     -4598.7531     -1683.3881     -6406.7819     -5706.0894      5070.4962      0.00042022781 -0.0020705078   9.22           9.22           9.22           783.77745    
       189   0             -476.56943     -4598.753      -1683.3801     -6406.7915     -5706.0875      5070.4944      0.00028419547 -0.001110392    9.22           9.22           9.22           783.77745    
       190   0             -476.56943     -4598.7546     -1683.3762     -6406.8004     -5706.0873      5070.4918     -0.00071172192  0.00036977218  9.22           9.22           9.22           783.77745    
       191   0             -476.56943     -4598.7544     -1683.3729     -6406.8035     -5706.0867      5070.4907      0.00042560738  0.0012245365   9.22           9.22           9.22           783.77745    
       192   0             -476.56943     -4598.7542     -1683.3714     -6406.8041     -5706.087       5070.4911      0.00014360094 -0.00074456416  9.22           9.22           9.22           783.77745    
       193   0             -476.56943     -4598.756      -1683.3717     -6406.8055     -5706.0906      5070.4908      0.001246786    2.3503548e-05  9.22           9.22           9.22           783.77745    
       194   0             -476.56943     -4598.7572     -1683.3692     -6406.8081     -5706.0941      5070.489      -6.667167e-05   0.00099995609  9.22           9.22           9.22           783.77745    
       195   0             -476.56943     -4598.7569     -1683.3637     -6406.8121     -5706.0949      5070.4882     -0.0012577432  -2.5067238e-06  9.22           9.22           9.22           783.77745    
       196   0             -476.56943     -4598.7573     -1683.3611     -6406.8161     -5706.0947      5070.4867     -8.5202888e-05 -0.00069681842  9.22           9.22           9.22           783.77745    
       197   0             -476.56943     -4598.7573     -1683.3616     -6406.8163     -5706.0941      5070.4867     -0.00067462517 -0.00083588061  9.22           9.22           9.22           783.77745    
       198   0             -476.56943     -4598.757      -1683.3624     -6406.8159     -5706.0929      5070.4874      0.00018593781  0.0003667034   9.22           9.22           9.22           783.77745    
       199   0             -476.56943     -4598.7566     -1683.3634     -6406.8148     -5706.0915      5070.4883      0.00018248263  0.0002460481   9.22           9.22           9.22           783.77745    
       200   0             -476.56943     -4598.7558     -1683.3659     -6406.812      -5706.0893      5070.4894     -0.00010169347 -0.00031000628  9.22           9.22           9.22           783.77745    
       201   0             -476.56943     -4598.7551     -1683.3709     -6406.807      -5706.0874      5070.4904      0.0011462297   0.0011715492   9.22           9.22           9.22           783.77745    
       202   0             -476.56943     -4598.7542     -1683.3781     -6406.7982     -5706.0863      5070.4917      7.3064785e-05  0.00070962508  9.22           9.22           9.22           783.77745    
       203   0             -476.56943     -4598.7531     -1683.3819     -6406.791      -5706.0864      5070.4932      0.00040105891  0.00072671594  9.22           9.22           9.22           783.77745    
       204   0             -476.56943     -4598.7532     -1683.3845     -6406.7884     -5706.0868      5070.4949     -0.00042637378 -0.00091331021  9.22           9.22           9.22           783.77745    
       205   0             -476.56943     -4598.7531     -1683.3857     -6406.7872     -5706.0866      5070.4954     -0.00026183593 -0.00040747738  9.22           9.22           9.22           783.77745    
       206   0             -476.56943     -4598.7528     -1683.386      -6406.7866     -5706.0859      5070.4954     -5.8172615e-05  4.3917191e-05  9.22           9.22           9.22           783.77745    
       207   0             -476.56943     -4598.7528     -1683.3862     -6406.7866     -5706.0856      5070.4953      3.5593551e-05  2.8414934e-05  9.22           9.22           9.22           783.77745    
       208   0             -476.56943     -4598.7528     -1683.3861     -6406.787      -5706.0855      5070.495       2.1661819e-05  6.7831622e-06  9.22           9.22           9.22           783.77745    
       209   0             -476.56943     -4598.7527     -1683.3852     -6406.7878     -5706.0851      5070.4952      1.4762606e-06  5.8035041e-05  9.22           9.22           9.22           783.77745    
       210   0             -476.56943     -4598.7529     -1683.3827     -6406.791      -5706.0851      5070.4949     -3.5240539e-05  5.9630672e-05  9.22           9.22           9.22           783.77745    
       211   0             -476.56943     -4598.7535     -1683.3806     -6406.7939     -5706.0859      5070.494       7.036499e-06   2.1926298e-05  9.22           9.22           9.22           783.77745    
       212   0             -476.56943     -4598.7538     -1683.3798     -6406.7948     -5706.0868      5070.4933      5.724386e-05  -1.1181571e-05  9.22           9.22           9.22           783.77745    
       213   0             -476.56943     -4598.7539     -1683.3796     -6406.7948     -5706.0872      5070.4931     -2.6921429e-05 -4.4132019e-05  9.22           9.22           9.22           783.77745    
       214   0             -476.56943     -4598.7539     -1683.3796     -6406.7948     -5706.0874      5070.4931     -1.6196289e-05  1.1589045e-05  9.22           9.22           9.22           783.77745    
       215   0             -476.56943     -4598.7539     -1683.3796     -6406.7947     -5706.0875      5070.4931     -5.3846715e-07 -6.6851208e-07  9.22           9.22           9.22           783.77745    
       216   0             -476.56943     -4598.7539     -1683.3796     -6406.7947     -5706.0875      5070.4931      5.1069636e-06 -5.2539394e-06  9.22           9.22           9.22           783.77745    
       217   0             -476.56943     -4598.7539     -1683.3796     -6406.7947     -5706.0875      5070.4931      2.9158241e-06  1.5201428e-06  9.22           9.22           9.22           783.77745    
       218   0             -476.56943     -4598.7539     -1683.3796     -6406.7948     -5706.0875      5070.4931     -2.6737986e-06  3.8228389e-06  9.22           9.22           9.22           783.77745    
       219   0             -476.56943     -4598.7539     -1683.3796     -6406.7948     -5706.0875      5070.4931     -6.3258547e-07 -3.108903e-07   9.22           9.22           9.22           783.77745    
       220   0             -476.56943     -4598.7539     -1683.3796     -6406.7948     -5706.0874      5070.4931      6.3136095e-06 -1.0178665e-05  9.22           9.22           9.22           783.77745    
       221   0             -476.56943     -4598.7539     -1683.3796     -6406.7948     -5706.0874      5070.4931     -2.9122844e-06 -6.8415439e-06  9.22           9.22           9.22           783.77745    
       222   0             -476.56943     -4598.7539     -1683.3796     -6406.7947     -5706.0874      5070.4931     -1.0473271e-05  3.5927138e-06  9.22           9.22           9.22           783.77745    
       223   0             -476.56943     -4598.7539     -1683.3796     -6406.7947     -5706.0875      5070.4931     -1.4065524e-06  2.0433094e-06  9.22           9.22           9.22           783.77745    
       224   0             -476.56943     -4598.7539     -1683.3796     -6406.7947     -5706.0875      5070.4931      1.6231568e-06 -1.957198e-06   9.22           9.22           9.22           783.77745    
       225   0             -476.56943     -4598.7539     -1683.3796     -6406.7947     -5706.0875      5070.4931      1.8979204e-08  6.9480772e-07  9.22           9.22           9.22           783.77745    
       226   0             -476.56943     -4598.7539     -1683.3796     -6406.7947     -5706.0875      5070.4931     -1.2359722e-06  1.7834569e-06  9.22           9.22           9.22           783.77745    
       227   0             -476.56943     -4598.7539     -1683.3796     -6406.7947     -5706.0875      5070.4931     -4.16863e-08   -8.2186726e-07  9.22           9.22           9.22           783.77745    
       228   0             -476.56943     -4598.7539     -1683.3796     -6406.7947     -5706.0875      5070.4931      1.7985969e-06 -9.9494451e-07  9.22           9.22           9.22           783.77745    
       229   0             -476.56943     -4598.7539     -1683.3796     -6406.7947     -5706.0875      5070.4931     -9.612639e-07   3.5608465e-07  9.22           9.22           9.22           783.77745    
       230   0             -476.56943     -4598.7539     -1683.3796     -6406.7947     -5706.0875      5070.4931     -7.8091644e-07 -4.5218838e-07  9.22           9.22           9.22           783.77745    
       231   0             -476.56943     -4598.7539     -1683.3796     -6406.7947     -5706.0875      5070.4931      1.5155351e-07 -2.7666756e-07  9.22           9.22           9.22           783.77745    
       232   0             -476.56943     -4598.7539     -1683.3796     -6406.7947     -5706.0875      5070.4931      1.3319682e-07  5.0155904e-08  9.22           9.22           9.22           783.77745    
       233   0             -476.56943     -4598.7539     -1683.3796     -6406.7947     -5706.0875      5070.4931      7.7607825e-09  9.8828243e-08  9.22           9.22           9.22           783.77745    
       234   0             -476.56943     -4598.7539     -1683.3796     -6406.7947     -5706.0875      5070.4931     -3.1458627e-08  2.2912293e-08  9.22           9.22           9.22           783.77745    
       235   0             -476.56943     -4598.7539     -1683.3796     -6406.7947     -5706.0875      5070.4931     -3.4580219e-09 -7.9534421e-08  9.22           9.22           9.22           783.77745    
       236   0             -476.56943     -4598.7539     -1683.3796     -6406.7947     -5706.0875      5070.4931      2.7510048e-08 -6.3584235e-09  9.22           9.22           9.22           783.77745    
       237   0             -476.56943     -4598.7539     -1683.3796     -6406.7947     -5706.0875      5070.4931     -8.170636e-08   1.6465042e-07  9.22           9.22           9.22           783.77745    
       238   0             -476.56943     -4598.7539     -1683.3796     -6406.7947     -5706.0875      5070.4931     -8.2276327e-08 -5.447837e-08   9.22           9.22           9.22           783.77745    
       239   0             -476.56943     -4598.7539     -1683.3796     -6406.7947     -5706.0875      5070.4931      8.2498897e-08 -7.8132332e-08  9.22           9.22           9.22           783.77745    
       240   0             -476.56943     -4598.7539     -1683.3796     -6406.7947     -5706.0875      5070.4931      5.5839254e-09 -1.3272871e-08  9.22           9.22           9.22           783.77745    
       241   0             -476.56943     -4598.7539     -1683.3796     -6406.7947     -5706.0875      5070.4931     -1.0206514e-08  3.1354787e-08  9.22           9.22           9.22           783.77745    
       242   0             -476.56943     -4598.7539     -1683.3796     -6406.7947     -5706.0875      5070.4931     -6.6329109e-09  1.8198114e-08  9.22           9.22           9.22           783.77745    
       243   0             -476.56943     -4598.7539     -1683.3796     -6406.7947     -5706.0875      5070.4931     -8.3832746e-10 -6.219077e-09   9.22           9.22           9.22           783.77745    
       244   0             -476.56943     -4598.7539     -1683.3796     -6406.7947     -5706.0875      5070.4931      2.8431361e-09 -3.5562871e-10  9.22           9.22           9.22           783.77745    
       245   0             -476.56943     -4598.7539     -1683.3796     -6406.7947     -5706.0875      5070.4931     -1.6585061e-09 -5.1585454e-10  9.22           9.22           9.22           783.77745    
       246   0             -476.56943     -4598.7539     -1683.3796     -6406.7947     -5706.0875      5070.4931     -1.0983611e-10  1.7227681e-09  9.22           9.22           9.22           783.77745    
       247   0             -476.56943     -4598.7539     -1683.3796     -6406.7947     -5706.0875      5070.4931     -2.7796968e-10 -1.6351658e-09  9.22           9.22           9.22           783.77745    
       248   0             -476.56943     -4598.7539     -1683.3796     -6406.7947     -5706.0875      5070.4931      2.7253781e-09  1.7046122e-09  9.22           9.22           9.22           783.77745    
       249   0             -476.56943     -4598.7539     -1683.3796     -6406.7947     -5706.0875      5070.4931     -7.6688824e-10  3.8195477e-10  9.22           9.22           9.22           783.77745    
       250   0             -476.56943     -4598.7539     -1683.3796     -6406.7947     -5706.0875      5070.4931     -1.0520777e-09 -3.2045165e-10  9.22           9.22           9.22           783.77745    
       251   0             -476.56943     -4598.7539     -1683.3796     -6406.7947     -5706.0875      5070.4931     -1.8644196e-10 -5.8053494e-10  9.22           9.22           9.22           783.77745    
       252   0             -476.56943     -4598.7539     -1683.3796     -6406.7947     -5706.0875      5070.4931      1.3120475e-10 -4.0260711e-10  9.22           9.22           9.22           783.77745    
       253   0             -476.56943     -4598.7539     -1683.3796     -6406.7947     -5706.0875      5070.4931      2.4744153e-10  1.3185723e-10  9.22           9.22           9.22           783.77745    
       254   0             -476.56943     -4598.7539     -1683.3796     -6406.7947     -5706.0875      5070.4931     -4.0411064e-11  1.0212694e-11  9.22           9.22           9.22           783.77745    
Loop time of 0.231809 on 1 procs for 249 steps with 64 atoms

99.8% CPU use with 1 MPI tasks x no OpenMP threads

Minimization stats:
  Stopping criterion = force tolerance
  Energy initial, next-to-last, final = 
     -472.768000023056  -476.569432646262  -476.569432646261
  Force two-norm initial, final = 0.00014101748 4.9681549e-13
  Force max component initial, final = 2.7928154e-05 1.1688843e-13
  Final line search alpha, max atom move = 1 1.1688843e-13
  Iterations, force evaluations = 249 427

MPI task timing breakdown:
Section |  min time  |  avg time  |  max time  |%varavg| %total
---------------------------------------------------------------
Pair    | 0.22964    | 0.22964    | 0.22964    |   0.0 | 99.06
Neigh   | 0          | 0          | 0          |   0.0 |  0.00
Comm    | 0.00065162 | 0.00065162 | 0.00065162 |   0.0 |  0.28
Output  | 0.00097862 | 0.00097862 | 0.00097862 |   0.0 |  0.42
Modify  | 0          | 0          | 0          |   0.0 |  0.00
Other   |            | 0.0005388  |            |       |  0.23

Nlocal:             64 ave          64 max          64 min
Histogram: 1 0 0 0 0 0 0 0 0 0
Nghost:            665 ave         665 max         665 min
Histogram: 1 0 0 0 0 0 0 0 0 0
Neighs:           2560 ave        2560 max        2560 min
Histogram: 1 0 0 0 0 0 0 0 0 0
FullNghs:         5120 ave        5120 max        5120 min
Histogram: 1 0 0 0 0 0 0 0 0 0

Total # of neighbors = 5120
Ave neighs/atom = 80
Neighbor list builds = 0
Dangerous builds = 0
=========================================
Components of the Elastic Constant Tensor
=========================================
Elastic Constant C11all = 460.072351111299 GPa
Elastic Constant C22all = 448.046500683799 GPa
Elastic Constant C33all = 448.594813750849 GPa
Elastic Constant C12all = 97.8441831722757 GPa
Elastic Constant C13all = 100.189441516149 GPa
Elastic Constant C23all = 89.4417971419007 GPa
Elastic Constant C44all = 128.106674340923 GPa
Elastic Constant C55all = 128.436405787764 GPa
Elastic Constant C66all = 15.1865457981003 GPa
Elastic Constant C14all = 3.65065921641237e-10 GPa
Elastic Constant C15all = -2.41998502554675e-10 GPa
Elastic Constant C16all = 0.316662799350524 GPa
Elastic Constant C24all = 6.3918974948785e-11 GPa
Elastic Constant C25all = 3.79623655326568e-10 GPa
Elastic Constant C26all = -10.9929625359746 GPa
Elastic Constant C34all = 2.48884520632124e-10 GPa
Elastic Constant C35all = -6.85237160981095e-10 GPa
Elastic Constant C36all = -3.93199054869911 GPa
Elastic Constant C45all = -3.98139718258858 GPa
Elastic Constant C46all = 8.82001699505461e-10 GPa
Elastic Constant C56all = -1.19197413972871e-09 GPa
=========================================
Average properties for a cubic crystal
=========================================
Bulk Modulus = 214.629389911844 GPa
Shear Modulus 1 = 90.5765419755958 GPa
Shear Modulus 2 = 178.206373952604 GPa
Poisson Ratio = 0.17484328538457
Lattice constant (Angstoms) = 9.22000002439023;
Total wall time: 0:00:02
