ITEM: TIMESTEP
0
ITEM: NUMBER OF ATOMS
64
ITEM: BOX BOUNDS pp pp pp
0.0000000000000000e+00 9.2400000000000002e+00
0.0000000000000000e+00 9.2400000000000002e+00
0.0000000000000000e+00 9.2400000000000002e+00
ITEM: ATOMS id type element mass x y z
1 1 Zr 91.224 0 0 0
2 1 Zr 91.224 2.31 2.31 0
3 1 Zr 91.224 2.31 0 2.31
4 1 Zr 91.224 0 2.31 2.31
5 2 N 14.007 2.31 0 0
6 2 N 14.007 0 2.31 0
7 2 N 14.007 0 0 2.31
8 2 N 14.007 2.31 2.31 2.31
9 1 Zr 91.224 4.62 0 0
10 1 Zr 91.224 6.93 2.31 0
11 1 Zr 91.224 6.93 0 2.31
12 1 Zr 91.224 4.62 2.31 2.31
13 2 N 14.007 6.93 0 0
14 2 N 14.007 4.62 2.31 0
15 2 N 14.007 4.62 0 2.31
16 2 N 14.007 6.93 2.31 2.31
17 1 Zr 91.224 0 4.62 0
18 1 Zr 91.224 2.31 6.93 0
19 1 Zr 91.224 2.31 4.62 2.31
20 1 Zr 91.224 0 6.93 2.31
21 2 N 14.007 2.31 4.62 0
22 2 N 14.007 0 6.93 0
23 2 N 14.007 0 4.62 2.31
24 2 N 14.007 2.31 6.93 2.31
25 1 Zr 91.224 4.62 4.62 0
26 1 Zr 91.224 6.93 6.93 0
27 1 Zr 91.224 6.93 4.62 2.31
28 1 Zr 91.224 4.62 6.93 2.31
29 2 N 14.007 6.93 4.62 0
30 2 N 14.007 4.62 6.93 0
31 2 N 14.007 4.62 4.62 2.31
32 2 N 14.007 6.93 6.93 2.31
33 1 Zr 91.224 0 0 4.62
34 1 Zr 91.224 2.31 2.31 4.62
35 1 Zr 91.224 2.31 0 6.93
36 1 Zr 91.224 0 2.31 6.93
37 2 N 14.007 2.31 0 4.62
38 2 N 14.007 0 2.31 4.62
39 2 N 14.007 0 0 6.93
40 2 N 14.007 2.31 2.31 6.93
41 1 Zr 91.224 4.62 0 4.62
42 1 Zr 91.224 6.93 2.31 4.62
43 1 Zr 91.224 6.93 0 6.93
44 1 Zr 91.224 4.62 2.31 6.93
45 2 N 14.007 6.93 0 4.62
46 2 N 14.007 4.62 2.31 4.62
47 2 N 14.007 4.62 0 6.93
48 2 N 14.007 6.93 2.31 6.93
49 1 Zr 91.224 0 4.62 4.62
50 1 Zr 91.224 2.31 6.93 4.62
51 1 Zr 91.224 2.31 4.62 6.93
52 1 Zr 91.224 0 6.93 6.93
53 2 N 14.007 2.31 4.62 4.62
54 2 N 14.007 0 6.93 4.62
55 2 N 14.007 0 4.62 6.93
56 2 N 14.007 2.31 6.93 6.93
57 1 Zr 91.224 4.62 4.62 4.62
58 1 Zr 91.224 6.93 6.93 4.62
59 1 Zr 91.224 6.93 4.62 6.93
60 1 Zr 91.224 4.62 6.93 6.93
61 2 N 14.007 6.93 4.62 4.62
62 2 N 14.007 4.62 6.93 4.62
63 2 N 14.007 4.62 4.62 6.93
64 2 N 14.007 6.93 6.93 6.93
ITEM: TIMESTEP
100
ITEM: NUMBER OF ATOMS
64
ITEM: BOX BOUNDS pp pp pp
5.5387102904091989e-08 9.2399999446129044e+00
5.5387102904091989e-08 9.2399999446129044e+00
5.5387102904091989e-08 9.2399999446129044e+00
ITEM: ATOMS id type element mass x y z
1 1 Zr 91.224 -0.0495474 0.00163774 -0.00134754
2 1 Zr 91.224 2.25846 2.28234 0.0522498
3 1 Zr 91.224 2.34283 -0.00682542 2.35932
4 1 Zr 91.224 0.0432761 2.32963 2.30545
5 2 N 14.007 2.26533 0.0157571 0.0382916
6 2 N 14.007 -0.0121555 2.3175 0.00672213
7 2 N 14.007 -0.00511139 0.00559153 2.34979
8 2 N 14.007 2.3579 2.26733 2.33125
9 1 Zr 91.224 4.55709 0.00817609 -0.0203363
10 1 Zr 91.224 6.89781 2.35252 -0.0324641
11 1 Zr 91.224 6.95101 0.0409617 2.30421
12 1 Zr 91.224 4.67495 2.36483 2.28269
13 2 N 14.007 6.8871 0.0553174 -0.0383367
14 2 N 14.007 4.5791 2.32344 -0.0279274
15 2 N 14.007 4.62001 -0.00308821 2.29757
16 2 N 14.007 6.91723 2.36817 2.31522
17 1 Zr 91.224 -0.0525927 4.59339 0.0200775
18 1 Zr 91.224 2.2635 6.91571 0.0124089
19 1 Zr 91.224 2.34399 4.61024 2.32941
20 1 Zr 91.224 0.0161449 6.92053 2.3232
21 2 N 14.007 2.32467 4.57807 0.0232419
22 2 N 14.007 0.0138153 6.91138 0.0220368
23 2 N 14.007 0.0235376 4.62304 2.34664
24 2 N 14.007 2.37101 6.9016 2.29504
25 1 Zr 91.224 4.59448 4.63643 -0.0400271
26 1 Zr 91.224 6.88934 6.92951 0.00117563
27 1 Zr 91.224 6.95634 4.67546 2.27481
28 1 Zr 91.224 4.65413 6.97655 2.26854
29 2 N 14.007 6.9026 4.65139 -0.0342525
30 2 N 14.007 4.61185 6.94863 -0.0391665
31 2 N 14.007 4.61974 4.60986 2.24958
32 2 N 14.007 6.97848 6.92621 2.31458
33 1 Zr 91.224 0.0144301 -0.0539796 4.66658
34 1 Zr 91.224 2.35344 2.24766 4.66313
35 1 Zr 91.224 2.25486 -0.0422367 6.98141
36 1 Zr 91.224 -0.0520015 2.28749 6.96584
37 2 N 14.007 2.36619 -0.0574144 4.6354
38 2 N 14.007 0.0767803 2.28043 4.68826
39 2 N 14.007 -0.0147656 -0.0122339 6.9466
40 2 N 14.007 2.36155 2.27996 6.98461
41 1 Zr 91.224 4.63835 -0.0125292 4.5898
42 1 Zr 91.224 6.93579 2.31036 4.60184
43 1 Zr 91.224 6.89315 0.0423244 6.90527
44 1 Zr 91.224 4.58452 2.33176 6.88603
45 2 N 14.007 6.90477 -0.0437597 4.63954
46 2 N 14.007 4.67735 2.36148 4.62811
47 2 N 14.007 4.59299 0.0633281 6.88131
48 2 N 14.007 6.93561 2.3461 6.90998
49 1 Zr 91.224 0.0383059 4.59396 4.61606
50 1 Zr 91.224 2.36035 6.8794 4.66603
51 1 Zr 91.224 2.30574 4.6167 6.96518
52 1 Zr 91.224 0.01817 6.96633 6.93602
53 2 N 14.007 2.37739 4.59144 4.64087
54 2 N 14.007 0.0369313 6.9442 4.63648
55 2 N 14.007 -0.00680218 4.54644 6.91973
56 2 N 14.007 2.29211 6.88978 6.91609
57 1 Zr 91.224 4.66198 4.60153 4.58026
58 1 Zr 91.224 6.96884 6.93757 4.58415
59 1 Zr 91.224 6.90631 4.62356 6.92379
60 1 Zr 91.224 4.60039 6.92736 6.89521
61 2 N 14.007 6.97712 4.63243 4.65456
62 2 N 14.007 4.6357 6.92199 4.6212
63 2 N 14.007 4.67006 4.60895 6.87792
64 2 N 14.007 6.90777 6.97231 6.94051
ITEM: TIMESTEP
200
ITEM: NUMBER OF ATOMS
64
ITEM: BOX BOUNDS pp pp pp
2.1257499227544940e-07 9.2399997874250452e+00
2.1257499227544940e-07 9.2399997874250452e+00
2.1257499227544940e-07 9.2399997874250452e+00
ITEM: ATOMS id type element mass x y z
1 1 Zr 91.224 0.0475961 0.00200172 0.0224898
2 1 Zr 91.224 2.37276 2.34738 -0.0664802
3 1 Zr 91.224 2.25877 0.00427425 2.24347
4 1 Zr 91.224 -0.0677273 2.27007 2.33628
5 2 N 14.007 2.41614 0.0817603 -0.0071421
6 2 N 14.007 0.0906597 2.27778 -0.0455675
7 2 N 14.007 0.0951033 -0.0537866 2.26376
8 2 N 14.007 2.34473 2.35777 2.22854
9 1 Zr 91.224 4.70367 0.00362679 0.027256
10 1 Zr 91.224 6.95187 2.25394 0.0359951
11 1 Zr 91.224 6.89556 -0.0542625 2.30914
12 1 Zr 91.224 4.51966 2.21434 2.33756
13 2 N 14.007 6.98183 -0.0212828 -0.0106003
14 2 N 14.007 4.6399 2.32908 0.0609518
15 2 N 14.007 4.56793 -0.0118217 2.3388
16 2 N 14.007 6.93526 2.30053 2.3003
17 1 Zr 91.224 0.0734598 4.66904 -0.0316745
18 1 Zr 91.224 2.37306 6.94683 -0.00397637
19 1 Zr 91.224 2.27186 4.62737 2.28737
20 1 Zr 91.224 -0.00585159 6.94257 2.30251
21 2 N 14.007 2.35277 4.66634 0.0349256
22 2 N 14.007 -0.0197605 6.96259 0.0226242
23 2 N 14.007 -0.00548289 4.6553 2.23652
24 2 N 14.007 2.25225 6.97421 2.36711
25 1 Zr 91.224 4.63853 4.60671 0.0430508
26 1 Zr 91.224 6.97039 6.95788 -0.0222804
27 1 Zr 91.224 6.91227 4.55113 2.35065
28 1 Zr 91.224 4.58311 6.86276 2.36348
29 2 N 14.007 6.98335 4.52952 0.01742
30 2 N 14.007 4.69187 6.87025 0.0954521
31 2 N 14.007 4.59289 4.63165 2.36736
32 2 N 14.007 6.9412 6.94387 2.33251
33 1 Zr 91.224 -0.0141578 0.0778626 4.55065
34 1 Zr 91.224 2.2548 2.39876 4.55992
35 1 Zr 91.224 2.37706 0.057475 6.8683
36 1 Zr 91.224 0.0708212 2.33223 6.87344
37 2 N 14.007 2.23717 0.00636341 4.58532
38 2 N 14.007 -0.0442368 2.3828 4.58062
39 2 N 14.007 0.0225745 0.0218111 6.93572
40 2 N 14.007 2.2864 2.29914 6.85084
41 1 Zr 91.224 4.59619 0.0149581 4.65867
42 1 Zr 91.224 6.93643 2.3223 4.63616
43 1 Zr 91.224 6.96262 -0.0574998 6.95868
44 1 Zr 91.224 4.65639 2.28587 6.99419
45 2 N 14.007 6.96942 -0.019831 4.64664
46 2 N 14.007 4.58076 2.2644 4.65867
47 2 N 14.007 4.72202 -0.0595951 6.98474
48 2 N 14.007 6.88442 2.33436 6.94602
49 1 Zr 91.224 -0.048692 4.64569 4.64233
50 1 Zr 91.224 2.24143 6.99815 4.55386
51 1 Zr 91.224 2.29749 4.60737 6.87547
52 1 Zr 91.224 -0.0558274 6.8546 6.93284
53 2 N 14.007 2.28627 4.65304 4.62936
54 2 N 14.007 -0.0688923 6.96852 4.60675
55 2 N 14.007 -0.00219559 4.63204 6.95548
56 2 N 14.007 2.34494 7.00923 6.88745
57 1 Zr 91.224 4.56849 4.65475 4.67898
58 1 Zr 91.224 6.89305 6.92327 4.65429
59 1 Zr 91.224 6.96226 4.61967 6.91981
60 1 Zr 91.224 4.63185 6.93621 6.9695
61 2 N 14.007 6.90877 4.54442 4.62121
62 2 N 14.007 4.64153 6.95819 4.66427
63 2 N 14.007 4.62736 4.56258 6.95935
64 2 N 14.007 6.95384 6.84618 6.88226
ITEM: TIMESTEP
300
ITEM: NUMBER OF ATOMS
64
ITEM: BOX BOUNDS pp pp pp
4.5326781084042977e-07 9.2399995467322107e+00
4.5326781084042977e-07 9.2399995467322107e+00
4.5326781084042977e-07 9.2399995467322107e+00
ITEM: ATOMS id type element mass x y z
1 1 Zr 91.224 -0.0059017 -0.00756593 -0.0687082
2 1 Zr 91.224 2.29576 2.29086 0.0400934
3 1 Zr 91.224 2.35885 0.00045682 2.34271
4 1 Zr 91.224 0.0365176 2.36126 2.23418
5 2 N 14.007 2.2013 0.0231546 0.07927
6 2 N 14.007 -0.0237479 2.3634 -0.00186361
7 2 N 14.007 -0.0447894 -0.0542268 2.33246
8 2 N 14.007 2.26932 2.24528 2.28185
9 1 Zr 91.224 4.59456 -0.0346792 -0.00587283
10 1 Zr 91.224 6.95583 2.32933 -0.00901165
11 1 Zr 91.224 6.94373 0.0197838 2.33101
12 1 Zr 91.224 4.73671 2.41118 2.31441
13 2 N 14.007 6.95358 -0.0479453 0.0279902
14 2 N 14.007 4.6354 2.27876 0.0160602
15 2 N 14.007 4.61324 -0.00425604 2.28103
16 2 N 14.007 6.94657 2.35176 2.29551
17 1 Zr 91.224 -0.056095 4.55958 0.0174425
18 1 Zr 91.224 2.27853 6.93607 -0.0513482
19 1 Zr 91.224 2.30942 4.63621 2.29218
20 1 Zr 91.224 -0.056619 6.89805 2.29066
21 2 N 14.007 2.29593 4.54465 0.0298457
22 2 N 14.007 0.0453184 6.92473 -0.00436002
23 2 N 14.007 -0.0637449 4.62985 2.3111
24 2 N 14.007 2.31347 6.95175 2.2512
25 1 Zr 91.224 4.64455 4.60418 -0.00637391
26 1 Zr 91.224 6.91964 6.84872 0.0821375
27 1 Zr 91.224 6.87918 4.65125 2.30765
28 1 Zr 91.224 4.60514 6.97994 2.29114
29 2 N 14.007 6.93781 4.68626 0.0204946
30 2 N 14.007 4.59372 6.96302 0.00246205
31 2 N 14.007 4.58874 4.55486 2.24095
32 2 N 14.007 6.96696 6.8924 2.31863
33 1 Zr 91.224 -0.0121529 -0.0684462 4.66937
34 1 Zr 91.224 2.33286 2.25029 4.66029
35 1 Zr 91.224 2.26309 -0.0225999 6.94987
36 1 Zr 91.224 -0.047186 2.30838 6.97173
37 2 N 14.007 2.32905 -0.0164075 4.60294
38 2 N 14.007 0.0393328 2.2791 4.65529
39 2 N 14.007 -0.00975457 0.00544433 6.86445
40 2 N 14.007 2.32747 2.29402 6.9965
41 1 Zr 91.224 4.60215 -0.0295223 4.60159
42 1 Zr 91.224 6.86473 2.28211 4.62715
43 1 Zr 91.224 6.94365 0.0505166 6.91629
44 1 Zr 91.224 4.60773 2.32573 6.88589
45 2 N 14.007 6.88521 -0.0805263 4.63733
46 2 N 14.007 4.62652 2.39321 4.59692
47 2 N 14.007 4.58105 0.0491748 6.8721
48 2 N 14.007 6.96356 2.31232 6.95011
49 1 Zr 91.224 -0.00974004 4.62159 4.56829
50 1 Zr 91.224 2.34413 6.90428 4.66045
51 1 Zr 91.224 2.35488 4.68425 6.96778
52 1 Zr 91.224 0.114931 7.05384 6.89755
53 2 N 14.007 2.29448 4.64871 4.55935
54 2 N 14.007 0.0385288 6.98482 4.57876
55 2 N 14.007 -0.0727152 4.6241 6.85041
56 2 N 14.007 2.32353 6.91539 6.90513
57 1 Zr 91.224 4.62902 4.5904 4.5924
58 1 Zr 91.224 6.91509 6.93748 4.61071
59 1 Zr 91.224 6.92125 4.58882 6.99596
60 1 Zr 91.224 4.64862 6.9064 6.92318
61 2 N 14.007 6.91253 4.69291 4.67541
62 2 N 14.007 4.57317 6.92683 4.60878
63 2 N 14.007 4.67871 4.64142 6.90224
64 2 N 14.007 6.94622 6.98315 7.00605
ITEM: TIMESTEP
400
ITEM: NUMBER OF ATOMS
64
ITEM: BOX BOUNDS pp pp pp
7.5359427320620398e-07 9.2399992464057306e+00
7.5359427320620398e-07 9.2399992464057306e+00
7.5359427320620398e-07 9.2399992464057306e+00
ITEM: ATOMS id type element mass x y z
1 1 Zr 91.224 -0.0617412 0.00684886 0.108413
2 1 Zr 91.224 2.26027 2.29558 0.0305184
3 1 Zr 91.224 2.29396 0.00814702 2.32283
4 1 Zr 91.224 0.015221 2.27333 2.4232
5 2 N 14.007 2.29214 -0.0878264 0.0058885
6 2 N 14.007 -0.0749041 2.27682 0.0654436
7 2 N 14.007 0.00414923 -0.0597597 2.33589
8 2 N 14.007 2.29066 2.33886 2.3225
9 1 Zr 91.224 4.58009 0.0584005 -0.017413
10 1 Zr 91.224 6.85757 2.31844 -0.0246996
11 1 Zr 91.224 6.92078 0.0426886 2.28058
12 1 Zr 91.224 4.50618 2.2311 2.27487
13 2 N 14.007 6.8612 0.0524309 -0.0353958
14 2 N 14.007 4.47725 2.3733 -0.00429322
15 2 N 14.007 4.57042 0.00401242 2.2783
16 2 N 14.007 6.88876 2.36112 2.25677
17 1 Zr 91.224 0.0150023 4.67663 0.00137098
18 1 Zr 91.224 2.31497 6.88765 0.101536
19 1 Zr 91.224 2.36769 4.59942 2.38168
20 1 Zr 91.224 0.125561 6.97731 2.36412
21 2 N 14.007 2.2572 4.57754 -0.0214383
22 2 N 14.007 -0.124006 6.91147 0.037469
23 2 N 14.007 0.102499 4.63388 2.31739
24 2 N 14.007 2.33953 6.95136 2.34043
25 1 Zr 91.224 4.54339 4.67282 -0.0481377
26 1 Zr 91.224 6.8755 7.06075 -0.122462
27 1 Zr 91.224 7.06262 4.65443 2.27949
28 1 Zr 91.224 4.69962 6.93787 2.28099
29 2 N 14.007 6.86387 4.60195 -0.0976075
30 2 N 14.007 4.57833 6.95245 -0.0327595
31 2 N 14.007 4.66147 4.63622 2.27306
32 2 N 14.007 6.905 7.02119 2.18274
33 1 Zr 91.224 0.0456259 0.0250465 4.60487
34 1 Zr 91.224 2.35387 2.30588 4.61277
35 1 Zr 91.224 2.30335 -0.0238644 6.97711
36 1 Zr 91.224 0.0265714 2.28472 6.90692
37 2 N 14.007 2.30742 -0.032926 4.6637
38 2 N 14.007 0.0159156 2.27648 4.64245
39 2 N 14.007 -0.0180442 -0.0314839 6.98855
40 2 N 14.007 2.29472 2.26699 6.884
41 1 Zr 91.224 4.67179 0.0213788 4.5915
42 1 Zr 91.224 7.04906 2.33027 4.6126
43 1 Zr 91.224 6.8941 -0.00782863 6.92334
44 1 Zr 91.224 4.62414 2.32295 6.9434
45 2 N 14.007 7.01415 0.106092 4.64942
46 2 N 14.007 4.61929 2.2962 4.5746
47 2 N 14.007 4.61678 -0.00212487 6.91695
48 2 N 14.007 6.89579 2.36542 6.87318
49 1 Zr 91.224 0.0703664 4.5733 4.67896
50 1 Zr 91.224 2.31985 6.88337 4.62718
51 1 Zr 91.224 2.2384 4.50969 6.92197
52 1 Zr 91.224 -0.147017 6.76892 6.9797
53 2 N 14.007 2.35459 4.5552 4.66905
54 2 N 14.007 0.00239012 6.84769 4.68465
55 2 N 14.007 -0.0107063 4.56558 7.03983
56 2 N 14.007 2.25441 6.92961 6.87495
57 1 Zr 91.224 4.65588 4.62877 4.61428
58 1 Zr 91.224 7.02646 6.91887 4.58465
59 1 Zr 91.224 6.91289 4.6795 6.8267
60 1 Zr 91.224 4.55838 6.96843 6.89333
61 2 N 14.007 6.97527 4.59561 4.57527
62 2 N 14.007 4.63302 6.91946 4.56249
63 2 N 14.007 4.56193 4.696 6.88517
64 2 N 14.007 6.81566 6.91084 6.80571
ITEM: TIMESTEP
500
ITEM: NUMBER OF ATOMS
64
ITEM: BOX BOUNDS pp pp pp
1.0927141547156793e-06 9.2399989072858588e+00
1.0927141547156793e-06 9.2399989072858588e+00
1.0927141547156793e-06 9.2399989072858588e+00
ITEM: ATOMS id type element mass x y z
1 1 Zr 91.224 0.0728509 -0.0106498 -0.0677012
2 1 Zr 91.224 2.37169 2.35614 -0.0513668
3 1 Zr 91.224 2.31541 -0.0489193 2.29305
4 1 Zr 91.224 -0.0384738 2.30893 2.22605
5 2 N 14.007 2.3629 0.00970643 -0.0325228
6 2 N 14.007 0.0184192 2.35744 -0.0906258
7 2 N 14.007 -0.023653 0.0501034 2.25567
8 2 N 14.007 2.32819 2.35577 2.32364
9 1 Zr 91.224 4.67145 -0.0265054 0.0241141
10 1 Zr 91.224 7.00815 2.32154 0.00680994
11 1 Zr 91.224 6.95194 -0.0542371 2.31142
12 1 Zr 91.224 4.75077 2.38441 2.35012
13 2 N 14.007 6.93107 -0.0487224 -0.00377439
14 2 N 14.007 4.63545 2.31996 -0.0250605
15 2 N 14.007 4.63829 0.00864874 2.29105
16 2 N 14.007 6.99035 2.20938 2.29145
17 1 Zr 91.224 0.017543 4.58519 0.0128671
18 1 Zr 91.224 2.30667 6.99737 -0.104846
19 1 Zr 91.224 2.27094 4.6268 2.21099
20 1 Zr 91.224 -0.13171 6.86569 2.26838
21 2 N 14.007 2.31835 4.67734 -0.0291031
22 2 N 14.007 0.0783322 7.00113 -0.0761214
23 2 N 14.007 -0.0711384 4.56088 2.28843
24 2 N 14.007 2.25573 6.95412 2.29049
25 1 Zr 91.224 4.72473 4.56757 0.0669207
26 1 Zr 91.224 7.00022 6.82549 0.103568
27 1 Zr 91.224 6.77362 4.55712 2.32637
28 1 Zr 91.224 4.51038 6.89241 2.35907
29 2 N 14.007 6.94669 4.58016 0.0642585
30 2 N 14.007 4.62722 6.86964 0.112819
31 2 N 14.007 4.55525 4.59021 2.37676
32 2 N 14.007 6.83855 6.87406 2.34277
33 1 Zr 91.224 -0.0390883 -0.000676187 4.64901
34 1 Zr 91.224 2.25865 2.32914 4.63517
35 1 Zr 91.224 2.33292 0.0209659 6.86702
36 1 Zr 91.224 -0.0254631 2.32432 6.97443
37 2 N 14.007 2.31856 0.0670407 4.6292
38 2 N 14.007 -0.117217 2.39171 4.59316
39 2 N 14.007 0.0357501 0.0978684 6.84436
40 2 N 14.007 2.2622 2.3379 6.94812
41 1 Zr 91.224 4.57 -0.00959402 4.67546
42 1 Zr 91.224 6.81847 2.32339 4.61558
43 1 Zr 91.224 6.95029 -0.023093 6.92179
44 1 Zr 91.224 4.58473 2.26389 6.94091
45 2 N 14.007 6.90413 0.0701308 4.59161
46 2 N 14.007 4.54398 2.29309 4.63316
47 2 N 14.007 4.65201 -0.0577487 6.91917
48 2 N 14.007 6.93339 2.21669 6.91589
49 1 Zr 91.224 -0.0563457 4.68032 4.58076
50 1 Zr 91.224 2.34245 7.01224 4.58518
51 1 Zr 91.224 2.3762 4.71075 6.93877
52 1 Zr 91.224 0.1295 7.06966 6.91123
53 2 N 14.007 2.25842 4.68282 4.58612
54 2 N 14.007 0.0345626 7.0021 4.62794
55 2 N 14.007 0.0574629 4.59663 6.84393
56 2 N 14.007 2.43939 6.94989 6.98118
57 1 Zr 91.224 4.61454 4.63732 4.62749
58 1 Zr 91.224 6.8102 6.95686 4.65652
59 1 Zr 91.224 6.95918 4.55989 7.02191
60 1 Zr 91.224 4.69338 6.8688 6.97722
61 2 N 14.007 6.80436 4.58863 4.60111
62 2 N 14.007 4.62403 6.97134 4.67593
63 2 N 14.007 4.60756 4.53286 6.90967
64 2 N 14.007 6.98844 6.81813 6.97629
ITEM: TIMESTEP
600
ITEM: NUMBER OF ATOMS
64
ITEM: BOX BOUNDS pp pp pp
1.4547387658936373e-06 9.2399985452612476e+00
1.4547387658936373e-06 9.2399985452612476e+00
1.4547387658936373e-06 9.2399985452612476e+00
ITEM: ATOMS id type element mass x y z
1 1 Zr 91.224 0.00697553 0.0251598 -0.013235
2 1 Zr 91.224 2.2725 2.26399 0.0293083
3 1 Zr 91.224 2.28947 0.100267 2.28687
4 1 Zr 91.224 0.0281326 2.34767 2.33829
5 2 N 14.007 2.27354 -0.0265122 -0.0366874
6 2 N 14.007 -0.0771689 2.27707 0.0153229
7 2 N 14.007 -0.0333177 0.0377619 2.341
8 2 N 14.007 2.24192 2.3312 2.29132
9 1 Zr 91.224 4.606 -0.030523 0.00548352
10 1 Zr 91.224 6.92769 2.23476 0.0326755
11 1 Zr 91.224 6.86425 0.00857324 2.3625
12 1 Zr 91.224 4.44769 2.21601 2.30506
13 2 N 14.007 6.94946 0.0379914 0.0644326
14 2 N 14.007 4.61555 2.22262 0.00506534
15 2 N 14.007 4.66597 -0.074488 2.33719
16 2 N 14.007 6.91789 2.37805 2.39125
17 1 Zr 91.224 0.00766758 4.63333 -0.0337992
18 1 Zr 91.224 2.36549 6.85688 0.0645539
19 1 Zr 91.224 2.29202 4.64593 2.39321
20 1 Zr 91.224 0.0942289 7.00979 2.31662
21 2 N 14.007 2.33802 4.56846 -0.0455249
22 2 N 14.007 0.109289 6.85828 0.00224306
23 2 N 14.007 0.0644186 4.70516 2.34708
24 2 N 14.007 2.42581 6.93321 2.23349
25 1 Zr 91.224 4.54277 4.62589 -0.0477935
26 1 Zr 91.224 6.895 6.93893 -0.0323976
27 1 Zr 91.224 7.04008 4.66805 2.34079
28 1 Zr 91.224 4.71067 6.95581 2.28762
29 2 N 14.007 6.9962 4.70491 0.0629422
30 2 N 14.007 4.59309 6.92837 0.00341509
31 2 N 14.007 4.6286 4.66521 2.24907
32 2 N 14.007 6.96049 6.93893 2.339
33 1 Zr 91.224 -0.0242387 0.022654 4.54482
34 1 Zr 91.224 2.30923 2.32762 4.55979
35 1 Zr 91.224 2.32121 0.0284161 6.96097
36 1 Zr 91.224 0.0645119 2.31886 6.84306
37 2 N 14.007 2.33365 -0.0191914 4.63073
38 2 N 14.007 0.0171402 2.26072 4.63406
39 2 N 14.007 0.0983082 0.00268782 6.9873
40 2 N 14.007 2.41981 2.3512 6.92458
41 1 Zr 91.224 4.61441 -0.00956825 4.56188
42 1 Zr 91.224 6.97775 2.25729 4.69177
43 1 Zr 91.224 6.98084 0.0327296 6.98881
44 1 Zr 91.224 4.7208 2.37968 6.92442
45 2 N 14.007 6.90797 -0.0910424 4.71126
46 2 N 14.007 4.70566 2.35321 4.59537
47 2 N 14.007 4.63979 0.0813258 6.9811
48 2 N 14.007 7.03682 2.31046 6.94294
49 1 Zr 91.224 -0.0318522 4.59744 4.59634
50 1 Zr 91.224 2.18995 6.88117 4.63789
51 1 Zr 91.224 2.28664 4.60689 6.88889
52 1 Zr 91.224 -0.0523711 6.86424 6.87971
53 2 N 14.007 2.30736 4.56462 4.62138
54 2 N 14.007 0.00765053 6.94039 4.59415
55 2 N 14.007 0.0504588 4.57263 6.987
56 2 N 14.007 2.2864 6.97173 6.88906
57 1 Zr 91.224 4.52709 4.57401 4.64222
58 1 Zr 91.224 7.00033 6.85896 4.63484
59 1 Zr 91.224 6.92063 4.62535 6.91553
60 1 Zr 91.224 4.58564 6.99013 6.91262
61 2 N 14.007 6.97416 4.60321 4.70637
62 2 N 14.007 4.59219 6.88625 4.55462
63 2 N 14.007 4.64068 4.69466 6.98774
64 2 N 14.007 6.8357 7.06492 6.92714
ITEM: TIMESTEP
700
ITEM: NUMBER OF ATOMS
64
ITEM: BOX BOUNDS pp pp pp
1.8372561836343948e-06 9.2399981627438308e+00
1.8372561836343948e-06 9.2399981627438308e+00
1.8372561836343948e-06 9.2399981627438308e+00
ITEM: ATOMS id type element mass x y z
1 1 Zr 91.224 -0.0852025 -0.0169921 0.0584202
2 1 Zr 91.224 2.31059 2.35261 -0.00398739
3 1 Zr 91.224 2.33851 -0.114748 2.36774
4 1 Zr 91.224 -0.00952398 2.26678 2.32265
5 2 N 14.007 2.33209 0.00639492 0.046953
6 2 N 14.007 0.0684105 2.26301 0.0280965
7 2 N 14.007 0.0947966 -0.0603664 2.35923
8 2 N 14.007 2.41769 2.27729 2.3425
9 1 Zr 91.224 4.57254 0.0613517 -0.0293445
10 1 Zr 91.224 6.83807 2.4351 -0.0588228
11 1 Zr 91.224 7.00656 0.0326527 2.21608
12 1 Zr 91.224 4.80122 2.41498 2.27813
13 2 N 14.007 6.87833 0.0841667 -0.0182608
14 2 N 14.007 4.59009 2.38228 -0.0200754
15 2 N 14.007 4.65419 0.0475615 2.33366
16 2 N 14.007 7.02379 2.27752 2.26896
17 1 Zr 91.224 -0.0401149 4.6335 0.0286776
18 1 Zr 91.224 2.21299 6.98922 -0.0237977
19 1 Zr 91.224 2.36857 4.57567 2.2476
20 1 Zr 91.224 -0.0449723 6.87636 2.32193
21 2 N 14.007 2.36034 4.77914 0.0503021
22 2 N 14.007 -0.0875885 6.94316 0.0352138
23 2 N 14.007 0.0522644 4.58063 2.27054
24 2 N 14.007 2.28196 6.7828 2.4205
25 1 Zr 91.224 4.64845 4.65719 0.00689692
26 1 Zr 91.224 6.91079 6.99766 -0.031192
27 1 Zr 91.224 6.86149 4.62332 2.23622
28 1 Zr 91.224 4.56439 6.92507 2.29122
29 2 N 14.007 6.89555 4.67019 -0.0323031
30 2 N 14.007 4.59427 6.95763 0.0195584
31 2 N 14.007 4.66826 4.70948 2.30475
32 2 N 14.007 6.91745 6.93207 2.29169
33 1 Zr 91.224 0.0619499 -0.0417957 4.70892
34 1 Zr 91.224 2.33912 2.25826 4.70472
35 1 Zr 91.224 2.27912 -0.0784352 6.93017
36 1 Zr 91.224 -0.0912669 2.27546 7.02832
37 2 N 14.007 2.28521 -0.0780532 4.64574
38 2 N 14.007 0.0480279 2.33391 4.6986
39 2 N 14.007 -0.0373501 -0.0250541 7.01199
40 2 N 14.007 2.20539 2.22673 7.03483
41 1 Zr 91.224 4.67753 -0.00544917 4.66071
42 1 Zr 91.224 6.93704 2.38827 4.51725
43 1 Zr 91.224 6.81922 -0.0295627 6.8512
44 1 Zr 91.224 4.48429 2.24224 6.92718
45 2 N 14.007 7.00082 0.0707151 4.54967
46 2 N 14.007 4.65754 2.29956 4.66302
47 2 N 14.007 4.61514 -0.0702818 6.92097
48 2 N 14.007 6.87801 2.28741 6.97355
49 1 Zr 91.224 0.0904056 4.5976 4.67866
50 1 Zr 91.224 2.46739 6.92706 4.62005
51 1 Zr 91.224 2.28219 4.56301 6.99428
52 1 Zr 91.224 -0.0215648 6.92918 7.00539
53 2 N 14.007 2.38736 4.58593 4.62917
54 2 N 14.007 0.00224781 6.94525 4.6861
55 2 N 14.007 -0.0196343 4.62207 6.95684
56 2 N 14.007 2.32538 6.89922 7.00023
57 1 Zr 91.224 4.77549 4.65803 4.56011
58 1 Zr 91.224 6.90609 7.00742 4.5754
59 1 Zr 91.224 6.91721 4.62979 6.88817
60 1 Zr 91.224 4.6137 6.84762 6.92487
61 2 N 14.007 7.05968 4.67257 4.536
62 2 N 14.007 4.74431 7.02405 4.55528
63 2 N 14.007 4.59076 4.56737 6.88033
64 2 N 14.007 6.96678 6.89592 6.93234
ITEM: TIMESTEP
800
ITEM: NUMBER OF ATOMS
64
ITEM: BOX BOUNDS pp pp pp
2.2542866986441368e-06 9.2399977457133282e+00
2.2542866986441368e-06 9.2399977457133282e+00
2.2542866986441368e-06 9.2399977457133282e+00
ITEM: ATOMS id type element mass x y z
1 1 Zr 91.224 0.0814708 0.0245644 -0.0582879
2 1 Zr 91.224 2.31124 2.24361 0.0019004
3 1 Zr 91.224 2.28757 0.0985537 2.26393
4 1 Zr 91.224 0.00596834 2.3234 2.30029
5 2 N 14.007 2.32817 0.0262697 -0.0060846
6 2 N 14.007 -0.0228118 2.30253 -0.0453992
7 2 N 14.007 -0.0467663 0.085778 2.29287
8 2 N 14.007 2.22935 2.34742 2.26791
9 1 Zr 91.224 4.66078 -0.0378333 0.0191199
10 1 Zr 91.224 7.02198 2.21091 0.0370432
11 1 Zr 91.224 6.85331 -0.0191472 2.3947
12 1 Zr 91.224 4.47481 2.22121 2.3355
13 2 N 14.007 7.00605 -0.0676889 -0.0237313
14 2 N 14.007 4.67103 2.23912 0.00361782
15 2 N 14.007 4.60065 -0.0270225 2.32131
16 2 N 14.007 6.87359 2.24234 2.30702
17 1 Zr 91.224 0.0352198 4.60384 -0.0108934
18 1 Zr 91.224 2.38078 6.89585 0.0103212
19 1 Zr 91.224 2.25933 4.64406 2.35708
20 1 Zr 91.224 0.0180623 6.94699 2.31281
21 2 N 14.007 2.32069 4.52071 0.0433972
22 2 N 14.007 0.0504966 6.90189 -0.0359422
23 2 N 14.007 -0.0461302 4.66788 2.34171
24 2 N 14.007 2.33144 7.03947 2.31574
25 1 Zr 91.224 4.59913 4.59534 0.00175675
26 1 Zr 91.224 6.94847 6.86079 0.0292803
27 1 Zr 91.224 6.99575 4.61554 2.35666
28 1 Zr 91.224 4.64634 6.91861 2.34666
29 2 N 14.007 6.95808 4.57658 -0.0279196
30 2 N 14.007 4.63362 6.80026 0.0618296
31 2 N 14.007 4.56857 4.54339 2.34141
32 2 N 14.007 6.95837 6.90229 2.34861
33 1 Zr 91.224 -0.0426146 0.0434152 4.54856
34 1 Zr 91.224 2.2974 2.3575 4.54565
35 1 Zr 91.224 2.30801 0.0645726 6.93558
36 1 Zr 91.224 0.0633288 2.32135 6.85808
37 2 N 14.007 2.33042 0.138442 4.61442
38 2 N 14.007 -0.040336 2.30163 4.56286
39 2 N 14.007 0.0441679 0.0261888 6.86139
40 2 N 14.007 2.40443 2.38102 6.89088
41 1 Zr 91.224 4.55523 0.0266816 4.58139
42 1 Zr 91.224 6.9269 2.25886 4.67694
43 1 Zr 91.224 7.03296 0.0465918 6.97585
44 1 Zr 91.224 4.73265 2.37391 6.92851
45 2 N 14.007 6.87208 -0.0667076 4.61978
46 2 N 14.007 4.62137 2.25036 4.5618
47 2 N 14.007 4.65768 0.0320058 6.99041
48 2 N 14.007 6.96382 2.2962 6.88577
49 1 Zr 91.224 -0.0699447 4.64904 4.56572
50 1 Zr 91.224 2.16016 6.94178 4.64431
51 1 Zr 91.224 2.3496 4.68358 6.87344
52 1 Zr 91.224 0.0289051 6.94215 6.88024
53 2 N 14.007 2.19956 4.67486 4.62873
54 2 N 14.007 -0.0484346 6.88718 4.5638
55 2 N 14.007 -0.0332936 4.61758 6.89753
56 2 N 14.007 2.27245 6.96202 6.91716
57 1 Zr 91.224 4.47978 4.59446 4.6644
58 1 Zr 91.224 6.94854 6.87512 4.64093
59 1 Zr 91.224 6.94423 4.60385 6.95571
60 1 Zr 91.224 4.60141 6.99889 6.9198
61 2 N 14.007 6.86526 4.59812 4.65131
62 2 N 14.007 4.56381 6.82596 4.68539
63 2 N 14.007 4.68106 4.60937 7.0421
64 2 N 14.007 7.00272 6.93171 6.91592
ITEM: TIMESTEP
900
ITEM: NUMBER OF ATOMS
64
ITEM: BOX BOUNDS pp pp pp
2.7167849143694411e-06 9.2399972832151107e+00
2.7167849143694411e-06 9.2399972832151107e+00
2.7167849143694411e-06 9.2399972832151107e+00
ITEM: ATOMS id type element mass x y z
1 1 Zr 91.224 -0.0375076 -0.0358968 0.0152037
2 1 Zr 91.224 2.36862 2.37001 -0.0203521
3 1 Zr 91.224 2.3199 -0.0346056 2.31053
4 1 Zr 91.224 -0.00775454 2.34538 2.27745
5 2 N 14.007 2.34234 0.0294067 -0.0303024
6 2 N 14.007 -0.018347 2.28649 0.00229113
7 2 N 14.007 -0.0016692 -0.0280094 2.27572
8 2 N 14.007 2.29891 2.20768 2.29949
9 1 Zr 91.224 4.63525 -0.0162865 0.00838566
10 1 Zr 91.224 6.88014 2.33843 -0.000206246
11 1 Zr 91.224 6.96725 -0.0333803 2.27567
12 1 Zr 91.224 4.70661 2.36466 2.29613
13 2 N 14.007 6.90289 -0.0113841 0.0368783
14 2 N 14.007 4.58304 2.34731 0.00865568
15 2 N 14.007 4.57879 0.0632841 2.29777
16 2 N 14.007 6.93634 2.3074 2.39587
17 1 Zr 91.224 -0.00964658 4.61235 -0.0286455
18 1 Zr 91.224 2.31187 6.97715 -0.0247372
19 1 Zr 91.224 2.30701 4.62128 2.26111
20 1 Zr 91.224 -0.0184023 6.94507 2.27781
21 2 N 14.007 2.31218 4.59438 -0.0883767
22 2 N 14.007 -0.0363932 6.97702 -0.0241341
23 2 N 14.007 0.0114463 4.59788 2.30056
24 2 N 14.007 2.25772 6.84136 2.26646
25 1 Zr 91.224 4.67182 4.60988 0.0174197
26 1 Zr 91.224 6.95669 6.93871 0.0212094
27 1 Zr 91.224 6.83159 4.60044 2.32517
28 1 Zr 91.224 4.59264 6.947 2.26928
29 2 N 14.007 6.9113 4.58594 -0.0261774
30 2 N 14.007 4.64027 6.99289 -0.0848015
31 2 N 14.007 4.57049 4.5797 2.29631
32 2 N 14.007 6.93562 6.87356 2.35784
33 1 Zr 91.224 -0.0181572 -0.0200327 4.63759
34 1 Zr 91.224 2.27237 2.32866 4.64208
35 1 Zr 91.224 2.38086 -0.00503364 6.90645
36 1 Zr 91.224 -0.00928214 2.35008 6.94812
37 2 N 14.007 2.32486 -0.00173326 4.55677
38 2 N 14.007 -0.0287519 2.25974 4.56936
39 2 N 14.007 -0.00304181 -0.0243838 6.91054
40 2 N 14.007 2.28226 2.25371 6.9106
41 1 Zr 91.224 4.63141 -0.0257092 4.64531
42 1 Zr 91.224 6.89293 2.33158 4.62566
43 1 Zr 91.224 6.89793 -0.0497184 6.94296
44 1 Zr 91.224 4.59509 2.27571 6.95728
45 2 N 14.007 6.87618 0.060416 4.61886
46 2 N 14.007 4.58711 2.28248 4.64668
47 2 N 14.007 4.57729 -0.00403924 6.88172
48 2 N 14.007 6.90909 2.33364 7.00746
49 1 Zr 91.224 -0.00304726 4.61688 4.63996
50 1 Zr 91.224 2.39183 6.93574 4.58436
51 1 Zr 91.224 2.28926 4.62451 6.9685
52 1 Zr 91.224 -0.00690676 6.94595 6.9372
53 2 N 14.007 2.32984 4.59881 4.58958
54 2 N 14.007 -0.00196417 6.89081 4.63867
55 2 N 14.007 0.017271 4.66579 6.87879
56 2 N 14.007 2.33232 6.89903 6.86928
57 1 Zr 91.224 4.67064 4.62781 4.62161
58 1 Zr 91.224 6.8575 6.93449 4.65899
59 1 Zr 91.224 6.92872 4.62538 6.95572
60 1 Zr 91.224 4.68382 6.87943 6.98094
61 2 N 14.007 6.95788 4.7031 4.67591
62 2 N 14.007 4.62411 6.91425 4.59874
63 2 N 14.007 4.63679 4.65786 6.91636
64 2 N 14.007 6.90141 6.84672 6.97403
ITEM: TIMESTEP
1000
ITEM: NUMBER OF ATOMS
64
ITEM: BOX BOUNDS pp pp pp
3.2265664948738504e-06 9.2399967734335284e+00
3.2265664948738504e-06 9.2399967734335284e+00
3.2265664948738504e-06 9.2399967734335284e+00
ITEM: ATOMS id type element mass x y z
1 1 Zr 91.224 0.00468597 0.0609605 0.0369485
2 1 Zr 91.224 2.2017 2.27645 0.0202534
3 1 Zr 91.224 2.32253 -0.000560893 2.34582
4 1 Zr 91.224 0.00766051 2.23079 2.40558
5 2 N 14.007 2.2826 -0.0164043 0.0542838
6 2 N 14.007 0.0323203 2.33818 0.0959836
7 2 N 14.007 0.034488 0.0179618 2.35486
8 2 N 14.007 2.37181 2.29945 2.31699
9 1 Zr 91.224 4.55766 0.100063 -0.0385362
10 1 Zr 91.224 6.92429 2.36902 -0.0320531
11 1 Zr 91.224 6.94399 0.100864 2.31475
12 1 Zr 91.224 4.59569 2.29644 2.31463
13 2 N 14.007 6.92691 -0.00745275 -0.0139466
14 2 N 14.007 4.54744 2.36736 -0.0151591
15 2 N 14.007 4.60327 0.0399384 2.29735
16 2 N 14.007 6.94709 2.32698 2.2051
17 1 Zr 91.224 -0.0165217 4.6566 0.0691373
18 1 Zr 91.224 2.2461 6.89048 0.0408366
19 1 Zr 91.224 2.36277 4.61452 2.35146
20 1 Zr 91.224 0.0414211 6.89683 2.36708
21 2 N 14.007 2.27897 4.68386 0.0265129
22 2 N 14.007 0.00540426 6.88985 0.0459413
23 2 N 14.007 0.00652457 4.60425 2.33473
24 2 N 14.007 2.31545 6.96756 2.3641
25 1 Zr 91.224 4.53767 4.65708 0.00108786
26 1 Zr 91.224 6.87261 6.97499 -0.0585321
27 1 Zr 91.224 7.04559 4.65091 2.25514
28 1 Zr 91.224 4.64401 6.90531 2.35784
29 2 N 14.007 6.90599 4.67856 -0.0853046
30 2 N 14.007 4.59103 6.93118 -0.0833733
31 2 N 14.007 4.68948 4.66632 2.33926
32 2 N 14.007 6.99572 7.02922 2.20775
33 1 Zr 91.224 0.0991748 0.0132019 4.64926
34 1 Zr 91.224 2.3993 2.23069 4.6396
35 1 Zr 91.224 2.18162 -0.0493737 6.96879
36 1 Zr 91.224 -0.0558773 2.21676 6.96344
37 2 N 14.007 2.2888 -0.045398 4.7053
38 2 N 14.007 0.09695 2.30493 4.64645
39 2 N 14.007 -0.0825324 -0.0540667 7.04316
40 2 N 14.007 2.24375 2.22462 6.96639
41 1 Zr 91.224 4.64652 0.0269831 4.59886
42 1 Zr 91.224 7.02751 2.31509 4.55229
43 1 Zr 91.224 6.90864 0.0464562 6.88028
44 1 Zr 91.224 4.56259 2.28786 6.89659
45 2 N 14.007 6.95592 0.0382527 4.55108
46 2 N 14.007 4.57703 2.26132 4.5656
47 2 N 14.007 4.56575 -0.0245285 6.92801
48 2 N 14.007 6.85921 2.36406 6.8706
49 1 Zr 91.224 0.065791 4.60269 4.63667
50 1 Zr 91.224 2.32524 6.91562 4.65165
51 1 Zr 91.224 2.31029 4.54789 6.9034
52 1 Zr 91.224 -0.00901007 6.87166 6.97836
53 2 N 14.007 2.31506 4.66143 4.65324
54 2 N 14.007 0.0488472 6.84597 4.60411
55 2 N 14.007 -0.0386584 4.6155 6.98745
56 2 N 14.007 2.26737 6.95971 6.95238
57 1 Zr 91.224 4.65187 4.62443 4.57838
58 1 Zr 91.224 7.04691 6.96852 4.54493
59 1 Zr 91.224 6.92619 4.6096 6.86364
60 1 Zr 91.224 4.52501 6.94755 6.83684
61 2 N 14.007 6.95699 4.60106 4.54237
62 2 N 14.007 4.64737 6.88922 4.57955