ITEM: TIMESTEP
12
ITEM: NUMBER OF ATOMS
63
ITEM: BOX BOUNDS pp pp pp
0.0000000000000000e+00 9.2200000000000006e+00
0.0000000000000000e+00 9.2200000000000006e+00
0.0000000000000000e+00 9.2200000000000006e+00
ITEM: ATOMS id type element xs ys zs c_csym c_eng
1 1 Ti 1.30712e-17 2.2167e-17 -0.0185903 11.5819 -7.26783
2 1 Ti 0.249498 0.249498 0.000502483 10.6415 -8.24742
3 1 Ti 0.26859 2.54703e-17 0.25 11.5819 -7.26783
4 1 Ti 1.96933e-17 0.26859 0.25 11.5819 -7.26783
5 2 N 0.245773 6.74344e-18 0.00422653 8.63295 -6.65045
6 2 N -1.82987e-17 0.245773 0.00422653 8.63295 -6.65045
8 2 N 0.245773 0.245773 0.25 8.63295 -6.65045
9 1 Ti 0.5 2.72307e-17 -0.00119768 4.61644 -8.1861
10 1 Ti 0.750502 0.249498 0.000502483 10.6415 -8.24742
11 1 Ti 0.73141 1.5781e-17 0.25 11.5819 -7.26783
12 1 Ti 0.5 0.251198 0.25 4.61644 -8.1861
13 2 N 0.754227 -8.81023e-18 0.00422653 8.63295 -6.65045
14 2 N 0.5 0.24965 0.000349711 10.4664 -6.5701
15 2 N 0.5 2.28624e-17 0.25 5.17915 -6.53373
16 2 N 0.754227 0.245773 0.25 8.63295 -6.65045
17 1 Ti 7.64881e-18 0.5 -0.00119768 4.61644 -8.1861
18 1 Ti 0.249498 0.750502 0.000502483 15.9571 -8.24742
19 1 Ti 0.251198 0.5 0.25 4.61644 -8.1861
20 1 Ti 4.5157e-18 0.73141 0.25 11.5819 -7.26783
21 2 N 0.24965 0.5 0.000349711 5.23372 -6.5701
22 2 N -1.32506e-17 0.754227 0.00422653 8.63295 -6.65045
23 2 N -1.33735e-17 0.5 0.25 5.17915 -6.53373
24 2 N 0.245773 0.754227 0.25 8.63295 -6.65045
25 1 Ti 0.5 0.5 -0.000149907 5.26263 -8.23825
26 1 Ti 0.750502 0.750502 0.000502483 15.9571 -8.24742
27 1 Ti 0.748802 0.5 0.25 4.61644 -8.1861
28 1 Ti 0.5 0.748802 0.25 4.61644 -8.1861
29 2 N 0.75035 0.5 0.000349711 5.23372 -6.5701
30 2 N 0.5 0.75035 0.000349711 10.4664 -6.5701
31 2 N 0.5 0.5 0.25 5.29837 -6.62226
32 2 N 0.754227 0.754227 0.25 8.63295 -6.65045
33 1 Ti 9.55726e-18 1.38333e-17 0.51859 11.5819 -7.26783
34 1 Ti 0.249498 0.249498 0.499498 15.9571 -8.24742
35 1 Ti 0.251198 -8.52328e-19 0.75 4.61644 -8.1861
36 1 Ti -5.74077e-18 0.251198 0.75 4.61644 -8.1861
37 2 N 0.245773 1.07508e-17 0.495773 8.63295 -6.65045
38 2 N -3.90289e-17 0.245773 0.495773 8.63295 -6.65045
39 2 N 7.99428e-18 -3.34829e-17 0.75 5.17915 -6.53373
40 2 N 0.24965 0.24965 0.75 5.23372 -6.5701
41 1 Ti 0.5 1.07636e-17 0.501198 4.61644 -8.1861
42 1 Ti 0.750502 0.249498 0.499498 15.9571 -8.24742
43 1 Ti 0.748802 1.59175e-17 0.75 4.61644 -8.1861
44 1 Ti 0.5 0.25015 0.75 5.26263 -8.23825
45 2 N 0.754227 1.18488e-17 0.495773 8.63295 -6.65045
46 2 N 0.5 0.24965 0.49965 5.23372 -6.5701
47 2 N 0.5 -8.27102e-19 0.75 5.29837 -6.62226
48 2 N 0.75035 0.24965 0.75 5.23372 -6.5701
49 1 Ti -1.22449e-18 0.5 0.501198 4.61644 -8.1861
50 1 Ti 0.249498 0.750502 0.499498 15.9571 -8.24742
51 1 Ti 0.25015 0.5 0.75 5.26263 -8.23825
52 1 Ti 1.49625e-17 0.748802 0.75 4.61644 -8.1861
53 2 N 0.24965 0.5 0.49965 5.23372 -6.5701
54 2 N 1.54168e-18 0.754227 0.495773 8.63295 -6.65045
55 2 N -2.63167e-17 0.5 0.75 5.29837 -6.62226
56 2 N 0.24965 0.75035 0.75 5.23372 -6.5701
7 2 N 0.75035 0.75035 0.75 5.23372 -6.5701
57 1 Ti 0.5 0.5 0.50015 5.26263 -8.23825
58 1 Ti 0.750502 0.750502 0.499498 10.6415 -8.24742
59 1 Ti 0.74985 0.5 0.75 5.26263 -8.23825
60 1 Ti 0.5 0.74985 0.75 5.26263 -8.23825
61 2 N 0.75035 0.5 0.49965 10.4664 -6.5701
62 2 N 0.5 0.75035 0.49965 5.23372 -6.5701
63 2 N 0.5 0.5 0.75 10.6558 -6.55049
