ITEM: TIMESTEP
1
ITEM: NUMBER OF ATOMS
64
ITEM: BOX BOUNDS pp pp pp
-4.6109999999999998e+00 4.6109999999999998e+00
-4.6109999999999998e+00 4.6109999999999998e+00
-4.6109999999999998e+00 4.6109999999999998e+00
ITEM: ATOMS id element type xs ys zs c_csym c_eng
1 Zr 1 0 0 0 10.6307 -8.24634
2 Zr 1 0.25 0.25 0 10.6307 -8.24634
3 Zr 1 0.25 0 0.25 10.6307 -8.24634
4 Zr 1 0 0.25 0.25 10.6307 -8.24634
33 N 2 0.25 0 0 10.6307 -6.52765
34 N 2 0 0.25 0 10.6307 -6.52765
41 N 2 0 0 0.25 10.6307 -6.52765
42 N 2 0.25 0.25 0.25 10.6307 -6.52765
5 Zr 1 0.5 0 0 10.6307 -8.24634
6 Zr 1 0.75 0.25 0 5.31533 -8.24634
7 Zr 1 0.75 0 0.25 10.6307 -8.24634
8 Zr 1 0.5 0.25 0.25 10.6307 -8.24634
35 N 2 0.75 0 0 10.6307 -6.52765
36 N 2 0.5 0.25 0 15.946 -6.52765
45 N 2 0.5 0 0.25 15.946 -6.52765
46 N 2 0.75 0.25 0.25 10.6307 -6.52765
9 Zr 1 0 0.5 0 10.6307 -8.24634
10 Zr 1 0.25 0.75 0 15.946 -8.24634
11 Zr 1 0.25 0.5 0.25 10.6307 -8.24634
12 Zr 1 0 0.75 0.25 10.6307 -8.24634
37 N 2 0.25 0.5 0 15.946 -6.52765
38 N 2 0 0.75 0 10.6307 -6.52765
49 N 2 0 0.5 0.25 15.946 -6.52765
50 N 2 0.25 0.75 0.25 10.6307 -6.52765
13 Zr 1 0.5 0.5 0 10.6307 -8.24634
14 Zr 1 0.75 0.75 0 10.6307 -8.24634
15 Zr 1 0.75 0.5 0.25 10.6307 -8.24634
16 Zr 1 0.5 0.75 0.25 10.6307 -8.24634
39 N 2 0.75 0.5 0 15.946 -6.52765
40 N 2 0.5 0.75 0 10.6307 -6.52765
53 N 2 0.5 0.5 0.25 15.946 -6.52765
54 N 2 0.75 0.75 0.25 10.6307 -6.52765
17 Zr 1 0 0 0.5 10.6307 -8.24634
18 Zr 1 0.25 0.25 0.5 10.6307 -8.24634
19 Zr 1 0.25 0 0.75 10.6307 -8.24634
20 Zr 1 0 0.25 0.75 10.6307 -8.24634
43 N 2 0.25 0 0.5 10.6307 -6.52765
44 N 2 0 0.25 0.5 10.6307 -6.52765
57 N 2 0 0 0.75 10.6307 -6.52765
58 N 2 0.25 0.25 0.75 5.31533 -6.52765
21 Zr 1 0.5 0 0.5 10.6307 -8.24634
22 Zr 1 0.75 0.25 0.5 10.6307 -8.24634
23 Zr 1 0.75 0 0.75 10.6307 -8.24634
24 Zr 1 0.5 0.25 0.75 10.6307 -8.24634
47 N 2 0.75 0 0.5 15.946 -6.52765
48 N 2 0.5 0.25 0.5 10.6307 -6.52765
59 N 2 0.5 0 0.75 15.946 -6.52765
60 N 2 0.75 0.25 0.75 5.31533 -6.52765
25 Zr 1 0 0.5 0.5 5.31533 -8.24634
26 Zr 1 0.25 0.75 0.5 10.6307 -8.24634
27 Zr 1 0.25 0.5 0.75 10.6307 -8.24634
28 Zr 1 0 0.75 0.75 10.6307 -8.24634
51 N 2 0.25 0.5 0.5 10.6307 -6.52765
52 N 2 0 0.75 0.5 10.6307 -6.52765
61 N 2 0 0.5 0.75 10.6307 -6.52765
62 N 2 0.25 0.75 0.75 5.31533 -6.52765
29 Zr 1 0.5 0.5 0.5 5.31533 -8.24634
30 Zr 1 0.75 0.75 0.5 10.6307 -8.24634
31 Zr 1 0.75 0.5 0.75 10.6307 -8.24634
32 Zr 1 0.5 0.75 0.75 10.6307 -8.24634
55 N 2 0.75 0.5 0.5 10.6307 -6.52765
56 N 2 0.5 0.75 0.5 15.946 -6.52765
63 N 2 0.5 0.5 0.75 10.6307 -6.52765
64 N 2 0.75 0.75 0.75 5.31533 -6.52765
