ITEM: TIMESTEP
14
ITEM: NUMBER OF ATOMS
63
ITEM: BOX BOUNDS pp pp pp
-4.6109999999999998e+00 4.6109999999999998e+00
-4.6109999999999998e+00 4.6109999999999998e+00
-4.6109999999999998e+00 4.6109999999999998e+00
ITEM: ATOMS id type element xs ys zs c_csym c_eng
1 1 Zr 0 0 0.000149966 5.26487 -8.2358
2 1 Zr 0.250505 0.250505 -0.000504601 15.9637 -8.24499
3 1 Zr 0.24985 0 0.25 5.26487 -8.2358
4 1 Zr 0 0.24985 0.25 5.26487 -8.2358
5 2 N 0.250349 0 -0.000349473 5.23596 -6.57239
6 2 N 0 0.250349 -0.000349473 5.23596 -6.57239
7 2 N 0 0 0.25 15.9907 -6.55288
8 2 N 0.250349 0.250349 0.25 5.23596 -6.57239
9 1 Zr 0.5 0 0.00119873 4.61758 -8.18361
10 1 Zr 0.749495 0.250505 -0.000504601 10.6459 -8.24499
11 1 Zr 0.75015 0 0.25 5.26487 -8.2358
12 1 Zr 0.5 0.248801 0.25 4.61758 -8.18361
13 2 N 0.749651 0 -0.000349473 5.23596 -6.57239
14 2 N 0.5 0.254223 -0.00422258 8.63545 -6.65276
15 2 N 0.5 0 0.25 5.30068 -6.62456
16 2 N 0.749651 0.250349 0.25 10.4709 -6.57239
17 1 Zr 0 0.5 0.00119873 4.61758 -8.18361
18 1 Zr 0.250505 0.749495 -0.000504601 10.6459 -8.24499
19 1 Zr 0.248801 0.5 0.25 4.61758 -8.18361
20 1 Zr 0 0.75015 0.25 5.26487 -8.2358
21 2 N 0.254223 0.5 -0.00422258 8.63545 -6.65276
22 2 N 0 0.749651 -0.000349473 5.23596 -6.57239
23 2 N 0 0.5 0.25 5.30068 -6.62456
24 2 N 0.250349 0.749651 0.25 5.23596 -6.57239
25 1 Zr 0.5 0.5 0.0186156 11.583 -7.26608
26 1 Zr 0.749495 0.749495 -0.000504601 10.6459 -8.24499
27 1 Zr 0.751199 0.5 0.25 4.61758 -8.18361
28 1 Zr 0.5 0.751199 0.25 4.61758 -8.18361
29 2 N 0.745777 0.5 -0.00422258 8.63545 -6.65276
30 2 N 0.5 0.745777 -0.00422258 8.63545 -6.65276
31 2 N 0.5 0.5 0.25 5.18165 -6.53645
32 2 N 0.749651 0.749651 0.25 5.23596 -6.57239
33 1 Zr 0 0 0.49985 5.26487 -8.2358
34 1 Zr 0.250505 0.250505 0.500505 10.6459 -8.24499
35 1 Zr 0.248801 0 0.75 4.61758 -8.18361
36 1 Zr 0 0.248801 0.75 4.61758 -8.18361
37 2 N 0.250349 0 0.500349 10.4709 -6.57239
38 2 N 0 0.250349 0.500349 10.4709 -6.57239
39 2 N 0 0 0.75 5.30068 -6.62456
40 2 N 0.254223 0.254223 0.75 8.63545 -6.65276
41 1 Zr 0.5 0 0.498801 4.61758 -8.18361
42 1 Zr 0.749495 0.250505 0.500505 10.6459 -8.24499
43 1 Zr 0.751199 0 0.75 4.61758 -8.18361
44 1 Zr 0.5 0.231384 0.75 11.583 -7.26608
45 2 N 0.749651 0 0.500349 10.4709 -6.57239
46 2 N 0.5 0.254223 0.504223 8.63545 -6.65276
47 2 N 0.5 0 0.75 5.18165 -6.53645
48 2 N 0.745777 0.254223 0.75 8.63545 -6.65276
49 1 Zr 0 0.5 0.498801 4.61758 -8.18361
50 1 Zr 0.250505 0.749495 0.500505 15.9637 -8.24499
51 1 Zr 0.231384 0.5 0.75 11.583 -7.26608
52 1 Zr 0 0.751199 0.75 4.61758 -8.18361
53 2 N 0.254223 0.5 0.504223 8.63545 -6.65276
54 2 N 0 0.749651 0.500349 10.4709 -6.57239
55 2 N 0 0.5 0.75 5.18165 -6.53645
56 2 N 0.254223 0.745777 0.75 8.63545 -6.65276
57 1 Zr 0.5 0.5 0.481384 11.583 -7.26608
58 1 Zr 0.749495 0.749495 0.500505 10.6459 -8.24499
59 1 Zr 0.768616 0.5 0.75 11.583 -7.26608
60 1 Zr 0.5 0.768616 0.75 11.583 -7.26608
61 2 N 0.745777 0.5 0.504223 8.63545 -6.65276
62 2 N 0.5 0.745777 0.504223 8.63545 -6.65276
63 2 N 0.745777 0.745777 0.75 8.63545 -6.65276
