ITEM: TIMESTEP
26
ITEM: NUMBER OF ATOMS
511
ITEM: BOX BOUNDS pp pp pp
0.0000000000000000e+00 1.8440000000000001e+01
0.0000000000000000e+00 1.8440000000000001e+01
0.0000000000000000e+00 1.8440000000000001e+01
ITEM: ATOMS id type element xs ys zs c_csym c_eng
1 1 Ti 9.35811e-18 -3.37321e-17 -0.0111914 10.9101 -7.25613
2 1 Ti 0.124561 0.124561 0.000439302 15.9159 -8.26898
3 1 Ti 0.136191 -4.25141e-17 0.125 10.9101 -7.25613
4 1 Ti -1.69377e-17 0.136191 0.125 10.9101 -7.25613
5 2 N 0.122752 -8.85313e-18 0.00224768 5.18696 -6.6679
6 2 N 3.18352e-17 0.122752 0.00224768 5.18696 -6.6679
8 2 N 0.122752 0.122752 0.125 5.18696 -6.6679
9 1 Ti 0.249764 8.8146e-18 -0.000264573 14.6473 -8.22112
10 1 Ti 0.374831 0.124967 3.25582e-05 5.28652 -8.24298
11 1 Ti 0.376135 2.54145e-17 0.125 15.3997 -8.27791
12 1 Ti 0.249764 0.125265 0.125 14.6473 -8.22112
13 2 N 0.375124 -4.37411e-18 -0.000198254 10.3722 -6.51271
14 2 N 0.249517 0.124798 0.000201671 5.26207 -6.54199
15 2 N 0.252881 8.36618e-19 0.125 9.70738 -6.53786
16 2 N 0.375124 0.125198 0.125 10.3722 -6.51271
17 1 Ti 0.5 -2.10064e-17 -0.00010148 5.21804 -8.251
18 1 Ti 0.5 0.125101 0.125 5.21804 -8.251
19 2 N 0.5 0.125013 -1.34374e-05 10.605 -6.52229
20 2 N 0.5 -2.29078e-17 0.125 5.30247 -6.53974
21 1 Ti 0.625169 0.124967 3.25582e-05 5.28652 -8.24298
22 1 Ti 0.623865 1.01514e-19 0.125 15.3997 -8.27791
23 1 Ti 0.750236 2.85617e-17 -0.000264573 14.6473 -8.22112
24 1 Ti 0.750236 0.125265 0.125 14.6473 -8.22112
25 2 N 0.624876 2.39057e-19 -0.000198254 10.3722 -6.51271
26 2 N 0.750483 0.124798 0.000201671 5.26207 -6.54199
27 2 N 0.624876 0.125198 0.125 10.3722 -6.51271
28 2 N 0.747119 -2.48666e-18 0.125 14.5174 -6.53786
29 1 Ti 0.875439 0.124561 0.000439302 15.9159 -8.26898
30 1 Ti 0.863809 -4.66156e-17 0.125 10.9101 -7.25613
31 2 N 0.877248 -2.93833e-17 0.00224768 5.18696 -6.6679
32 2 N 0.877248 0.122752 0.125 5.18696 -6.6679
33 1 Ti 1.59427e-17 0.249764 -0.000264573 14.6473 -8.22112
34 1 Ti 0.124967 0.374831 3.25582e-05 5.28652 -8.24298
35 1 Ti 0.125265 0.249764 0.125 14.6473 -8.22112
36 1 Ti 4.56861e-18 0.376135 0.125 15.3997 -8.27791
37 2 N 0.124798 0.249517 0.000201671 5.26207 -6.54199
38 2 N -1.52673e-17 0.375124 -0.000198254 10.3722 -6.51271
39 2 N -5.32438e-17 0.252881 0.125 14.5174 -6.53786
40 2 N 0.125198 0.375124 0.125 10.3722 -6.51271
41 1 Ti 0.24986 0.24986 1.41297e-05 10.5454 -8.24691
42 1 Ti 0.374969 0.374969 4.44023e-06 10.6129 -8.24746
43 1 Ti 0.374938 0.250033 0.125 5.28926 -8.24819
44 1 Ti 0.250033 0.374938 0.125 5.28926 -8.24819
45 2 N 0.374894 0.24995 1.17955e-05 5.28962 -6.52746
46 2 N 0.24995 0.374894 1.17955e-05 5.28962 -6.52746
47 2 N 0.249705 0.249705 0.125 10.5342 -6.54812
48 2 N 0.374963 0.374963 0.125 10.6121 -6.52888
49 1 Ti 0.5 0.249984 4.16392e-06 10.6078 -8.24633
50 1 Ti 0.5 0.375015 0.125 15.924 -8.24877
51 2 N 0.5 0.374983 1.00957e-06 5.30501 -6.52665
52 2 N 0.5 0.250071 0.125 5.29818 -6.52338
53 1 Ti 0.625031 0.374969 4.44023e-06 10.6129 -8.24746
54 1 Ti 0.625062 0.250033 0.125 5.28926 -8.24819
55 1 Ti 0.75014 0.24986 1.41297e-05 10.5454 -8.24691
56 1 Ti 0.749967 0.374938 0.125 5.28926 -8.24819
57 2 N 0.625106 0.24995 1.17955e-05 5.28962 -6.52746
58 2 N 0.75005 0.374894 1.17955e-05 5.28962 -6.52746
59 2 N 0.625037 0.374963 0.125 10.6121 -6.52888
60 2 N 0.750295 0.249705 0.125 10.5342 -6.54812
61 1 Ti 0.875033 0.374831 3.25582e-05 5.28652 -8.24298
62 1 Ti 0.874735 0.249764 0.125 14.6473 -8.22112
63 2 N 0.875202 0.249517 0.000201671 5.26207 -6.54199
64 2 N 0.874802 0.375124 0.125 10.3722 -6.51271
65 1 Ti -1.09571e-17 0.5 -0.00010148 5.21804 -8.251
66 1 Ti 0.125101 0.5 0.125 5.21804 -8.251
67 2 N 0.125013 0.5 -1.34374e-05 10.605 -6.52229
68 2 N -2.75734e-17 0.5 0.125 1.39288e-29 -6.53974
69 1 Ti 0.249984 0.5 4.16392e-06 10.6078 -8.24633
70 1 Ti 0.375015 0.5 0.125 10.6149 -8.24877
71 2 N 0.374983 0.5 1.00957e-06 5.30501 -6.52665
72 2 N 0.250071 0.5 0.125 5.29818 -6.52338
73 1 Ti 0.5 0.5 2.6879e-07 5.31179 -8.24785
74 2 N 0.5 0.5 0.125 5.31294 -6.52786
75 1 Ti 0.624985 0.5 0.125 10.6149 -8.24877
76 1 Ti 0.750016 0.5 4.16392e-06 10.6078 -8.24633
77 2 N 0.625017 0.5 1.00957e-06 5.30501 -6.52665
78 2 N 0.749929 0.5 0.125 5.29818 -6.52338
79 1 Ti 0.874899 0.5 0.125 5.21804 -8.251
80 2 N 0.874987 0.5 -1.34374e-05 10.605 -6.52229
81 1 Ti 0.124967 0.625169 3.25582e-05 5.28652 -8.24298
82 1 Ti 6.60029e-19 0.623865 0.125 15.3997 -8.27791
83 1 Ti 1.95046e-17 0.750236 -0.000264573 14.6473 -8.22112
84 1 Ti 0.125265 0.750236 0.125 14.6473 -8.22112
85 2 N 2.04757e-17 0.624876 -0.000198254 10.3722 -6.51271
86 2 N 0.124798 0.750483 0.000201671 5.26207 -6.54199
87 2 N 0.125198 0.624876 0.125 10.3722 -6.51271
88 2 N -4.37902e-17 0.747119 0.125 14.5174 -6.53786
89 1 Ti 0.374969 0.625031 4.44023e-06 10.6129 -8.24746
90 1 Ti 0.250033 0.625062 0.125 5.28926 -8.24819
91 1 Ti 0.24986 0.75014 1.41297e-05 10.5454 -8.24691
92 1 Ti 0.374938 0.749967 0.125 5.28926 -8.24819
93 2 N 0.24995 0.625106 1.17955e-05 5.28962 -6.52746
94 2 N 0.374894 0.75005 1.17955e-05 5.28962 -6.52746
95 2 N 0.374963 0.625037 0.125 10.6121 -6.52888
96 2 N 0.249705 0.750295 0.125 10.5342 -6.54812
97 1 Ti 0.5 0.624985 0.125 15.924 -8.24877
98 1 Ti 0.5 0.750016 4.16392e-06 10.6078 -8.24633
99 2 N 0.5 0.625017 1.00957e-06 5.30501 -6.52665
100 2 N 0.5 0.749929 0.125 5.29818 -6.52338
101 1 Ti 0.625031 0.625031 4.44023e-06 10.6129 -8.24746
102 1 Ti 0.749967 0.625062 0.125 5.28926 -8.24819
103 1 Ti 0.625062 0.749967 0.125 5.28926 -8.24819
104 1 Ti 0.75014 0.75014 1.41297e-05 10.5454 -8.24691
105 2 N 0.75005 0.625106 1.17955e-05 5.28962 -6.52746
106 2 N 0.625106 0.75005 1.17955e-05 5.28962 -6.52746
107 2 N 0.625037 0.625037 0.125 10.6121 -6.52888
108 2 N 0.750295 0.750295 0.125 10.5342 -6.54812
109 1 Ti 0.875033 0.625169 3.25582e-05 5.28652 -8.24298
110 1 Ti 0.874735 0.750236 0.125 14.6473 -8.22112
111 2 N 0.875202 0.750483 0.000201671 5.26207 -6.54199
112 2 N 0.874802 0.624876 0.125 10.3722 -6.51271
113 1 Ti 0.124561 0.875439 0.000439302 15.9159 -8.26898
114 1 Ti -1.62906e-17 0.863809 0.125 10.9101 -7.25613
115 2 N 2.56202e-17 0.877248 0.00224768 5.18696 -6.6679
116 2 N 0.122752 0.877248 0.125 5.18696 -6.6679
117 1 Ti 0.374831 0.875033 3.25582e-05 5.28652 -8.24298
118 1 Ti 0.249764 0.874735 0.125 14.6473 -8.22112
119 2 N 0.249517 0.875202 0.000201671 5.26207 -6.54199
120 2 N 0.375124 0.874802 0.125 10.3722 -6.51271
121 1 Ti 0.5 0.874899 0.125 5.21804 -8.251
122 2 N 0.5 0.874987 -1.34374e-05 10.605 -6.52229
123 1 Ti 0.625169 0.875033 3.25582e-05 5.28652 -8.24298
124 1 Ti 0.750236 0.874735 0.125 14.6473 -8.22112
125 2 N 0.750483 0.875202 0.000201671 5.26207 -6.54199
126 2 N 0.624876 0.874802 0.125 10.3722 -6.51271
127 1 Ti 0.875439 0.875439 0.000439302 15.9159 -8.26898
128 2 N 0.877248 0.877248 0.125 5.18696 -6.6679
129 1 Ti -2.96767e-17 -4.86278e-17 0.261191 10.9101 -7.25613
130 1 Ti 0.124561 0.124561 0.249561 15.9159 -8.26898
131 1 Ti 0.125265 -2.19807e-17 0.374764 14.6473 -8.22112
132 1 Ti 3.00049e-17 0.125265 0.374764 14.6473 -8.22112
133 2 N 0.122752 -4.35146e-17 0.247752 5.18696 -6.6679
134 2 N -4.03466e-18 0.122752 0.247752 5.18696 -6.6679
135 2 N -8.69929e-18 -4.56757e-17 0.377881 9.70738 -6.53786
136 2 N 0.124798 0.124798 0.374517 5.26207 -6.54199
137 1 Ti 0.249764 1.39375e-17 0.250265 14.6473 -8.22112
138 1 Ti 0.374831 0.124967 0.249967 5.28652 -8.24298
139 1 Ti 0.374938 1.17665e-17 0.375033 5.28926 -8.24819
140 1 Ti 0.24986 0.124986 0.37486 10.5454 -8.24691
141 2 N 0.375124 -3.23891e-18 0.250198 10.3722 -6.51271
142 2 N 0.249517 0.124798 0.249798 5.26207 -6.54199
143 2 N 0.249705 2.84757e-17 0.374705 10.5342 -6.54812
144 2 N 0.374894 0.124988 0.37495 5.28962 -6.52746
145 1 Ti 0.5 -3.2752e-17 0.250101 5.21804 -8.251
146 1 Ti 0.5 0.124996 0.374984 10.6078 -8.24633
147 2 N 0.5 0.125013 0.250013 10.605 -6.52229
148 2 N 0.5 1.29487e-17 0.375071 5.29818 -6.52338
149 1 Ti 0.625169 0.124967 0.249967 5.28652 -8.24298
150 1 Ti 0.625062 3.23981e-17 0.375033 5.28926 -8.24819
151 1 Ti 0.750236 4.68127e-18 0.250265 14.6473 -8.22112
152 1 Ti 0.75014 0.124986 0.37486 10.5454 -8.24691
153 2 N 0.624876 1.45773e-17 0.250198 10.3722 -6.51271
154 2 N 0.750483 0.124798 0.249798 5.26207 -6.54199
155 2 N 0.625106 0.124988 0.37495 5.28962 -6.52746
156 2 N 0.750295 4.90064e-17 0.374705 10.5342 -6.54812
157 1 Ti 0.875439 0.124561 0.249561 15.9159 -8.26898
158 1 Ti 0.874735 5.1804e-19 0.374764 14.6473 -8.22112
159 2 N 0.877248 -3.03603e-17 0.247752 5.18696 -6.6679
160 2 N 0.875202 0.124798 0.374517 5.26207 -6.54199
161 1 Ti -2.588e-17 0.249764 0.250265 14.6473 -8.22112
162 1 Ti 0.124967 0.374831 0.249967 5.28652 -8.24298
163 1 Ti 0.124986 0.24986 0.37486 10.5454 -8.24691
164 1 Ti 2.67968e-17 0.374938 0.375033 5.28926 -8.24819
165 2 N 0.124798 0.249517 0.249798 5.26207 -6.54199
166 2 N -1.20359e-17 0.375124 0.250198 10.3722 -6.51271
167 2 N 1.85499e-17 0.249705 0.374705 10.5342 -6.54812
168 2 N 0.124988 0.374894 0.37495 5.28962 -6.52746
169 1 Ti 0.24986 0.24986 0.249986 10.5454 -8.24691
170 1 Ti 0.374969 0.374969 0.249996 10.6129 -8.24746
171 1 Ti 0.374964 0.249978 0.374978 5.32348e-06 -8.24791
172 1 Ti 0.249978 0.374964 0.374978 5.32348e-06 -8.24791
173 2 N 0.374894 0.24995 0.249988 5.28962 -6.52746
174 2 N 0.24995 0.374894 0.249988 5.28962 -6.52746
175 2 N 0.249931 0.249931 0.374931 1.15778e-05 -6.52851
176 2 N 0.374982 0.374982 0.374988 8.99998e-07 -6.52645
177 1 Ti 0.5 0.249984 0.249996 10.6078 -8.24633
178 1 Ti 0.5 0.374989 0.374993 5.31238 -8.24807
179 2 N 0.5 0.374983 0.249999 5.30501 -6.52665
180 2 N 0.5 0.249982 0.374982 10.6189 -6.52697
181 1 Ti 0.625031 0.374969 0.249996 10.6129 -8.24746
182 1 Ti 0.625036 0.249978 0.374978 5.32348e-06 -8.24791
183 1 Ti 0.75014 0.24986 0.249986 10.5454 -8.24691
184 1 Ti 0.750022 0.374964 0.374978 5.32348e-06 -8.24791
185 2 N 0.625106 0.24995 0.249988 5.28962 -6.52746
186 2 N 0.75005 0.374894 0.249988 5.28962 -6.52746
187 2 N 0.625018 0.374982 0.374988 8.99998e-07 -6.52645
188 2 N 0.750069 0.249931 0.374931 1.15778e-05 -6.52851
189 1 Ti 0.875033 0.374831 0.249967 5.28652 -8.24298
190 1 Ti 0.875014 0.24986 0.37486 10.5454 -8.24691
191 2 N 0.875202 0.249517 0.249798 5.26207 -6.54199
192 2 N 0.875012 0.374894 0.37495 5.28962 -6.52746
193 1 Ti -2.51849e-17 0.5 0.250101 5.21804 -8.251
194 1 Ti 0.124996 0.5 0.374984 10.6078 -8.24633
195 2 N 0.125013 0.5 0.250013 10.605 -6.52229
196 2 N 1.49596e-17 0.5 0.375071 5.29818 -6.52338
197 1 Ti 0.249984 0.5 0.249996 10.6078 -8.24633
198 1 Ti 0.374989 0.5 0.374993 5.31238 -8.24807
199 2 N 0.374983 0.5 0.249999 5.30501 -6.52665
200 2 N 0.249982 0.5 0.374982 10.6189 -6.52697
201 1 Ti 0.5 0.5 0.25 5.31179 -8.24785
202 2 N 0.5 0.5 0.374994 5.31275 -6.52612
203 1 Ti 0.625011 0.5 0.374993 5.31238 -8.24807
204 1 Ti 0.750016 0.5 0.249996 10.6078 -8.24633
205 2 N 0.625017 0.5 0.249999 5.30501 -6.52665
206 2 N 0.750018 0.5 0.374982 10.6189 -6.52697
207 1 Ti 0.875004 0.5 0.374984 10.6078 -8.24633
208 2 N 0.874987 0.5 0.250013 10.605 -6.52229
209 1 Ti 0.124967 0.625169 0.249967 5.28652 -8.24298
210 1 Ti 2.844e-17 0.625062 0.375033 5.28926 -8.24819
211 1 Ti -1.78861e-17 0.750236 0.250265 14.6473 -8.22112
212 1 Ti 0.124986 0.75014 0.37486 10.5454 -8.24691
213 2 N 2.10901e-17 0.624876 0.250198 10.3722 -6.51271
214 2 N 0.124798 0.750483 0.249798 5.26207 -6.54199
215 2 N 0.124988 0.625106 0.37495 5.28962 -6.52746
216 2 N 2.82454e-17 0.750295 0.374705 10.5342 -6.54812
217 1 Ti 0.374969 0.625031 0.249996 10.6129 -8.24746
218 1 Ti 0.249978 0.625036 0.374978 5.32348e-06 -8.24791
219 1 Ti 0.24986 0.75014 0.249986 10.5454 -8.24691
220 1 Ti 0.374964 0.750022 0.374978 5.32348e-06 -8.24791
221 2 N 0.24995 0.625106 0.249988 5.28962 -6.52746
222 2 N 0.374894 0.75005 0.249988 5.28962 -6.52746
223 2 N 0.374982 0.625018 0.374988 8.99998e-07 -6.52645
224 2 N 0.249931 0.750069 0.374931 1.15778e-05 -6.52851
225 1 Ti 0.5 0.625011 0.374993 5.31238 -8.24807
226 1 Ti 0.5 0.750016 0.249996 10.6078 -8.24633
227 2 N 0.5 0.625017 0.249999 5.30501 -6.52665
228 2 N 0.5 0.750018 0.374982 10.6189 -6.52697
229 1 Ti 0.625031 0.625031 0.249996 10.6129 -8.24746
230 1 Ti 0.750022 0.625036 0.374978 5.32348e-06 -8.24791
231 1 Ti 0.625036 0.750022 0.374978 5.32348e-06 -8.24791
232 1 Ti 0.75014 0.75014 0.249986 10.5454 -8.24691
233 2 N 0.75005 0.625106 0.249988 5.28962 -6.52746
234 2 N 0.625106 0.75005 0.249988 5.28962 -6.52746
235 2 N 0.625018 0.625018 0.374988 8.99998e-07 -6.52645
236 2 N 0.750069 0.750069 0.374931 1.15778e-05 -6.52851
237 1 Ti 0.875033 0.625169 0.249967 5.28652 -8.24298
238 1 Ti 0.875014 0.75014 0.37486 10.5454 -8.24691
239 2 N 0.875202 0.750483 0.249798 5.26207 -6.54199
240 2 N 0.875012 0.625106 0.37495 5.28962 -6.52746
241 1 Ti 0.124561 0.875439 0.249561 15.9159 -8.26898
242 1 Ti 1.48287e-17 0.874735 0.374764 14.6473 -8.22112
243 2 N 2.27143e-18 0.877248 0.247752 5.18696 -6.6679
244 2 N 0.124798 0.875202 0.374517 5.26207 -6.54199
245 1 Ti 0.374831 0.875033 0.249967 5.28652 -8.24298
246 1 Ti 0.24986 0.875014 0.37486 10.5454 -8.24691
247 2 N 0.249517 0.875202 0.249798 5.26207 -6.54199
248 2 N 0.374894 0.875012 0.37495 5.28962 -6.52746
249 1 Ti 0.5 0.875004 0.374984 10.6078 -8.24633
250 2 N 0.5 0.874987 0.250013 10.605 -6.52229
251 1 Ti 0.625169 0.875033 0.249967 5.28652 -8.24298
252 1 Ti 0.75014 0.875014 0.37486 10.5454 -8.24691
253 2 N 0.750483 0.875202 0.249798 5.26207 -6.54199
254 2 N 0.625106 0.875012 0.37495 5.28962 -6.52746
255 1 Ti 0.875439 0.875439 0.249561 15.9159 -8.26898
256 2 N 0.875202 0.875202 0.374517 5.26207 -6.54199
257 1 Ti -7.66755e-18 -1.30843e-18 0.501135 15.3997 -8.27791
258 1 Ti 0.124967 0.124967 0.499831 5.28652 -8.24298
259 2 N 0.125198 -2.983e-18 0.500124 10.3722 -6.51271
260 2 N 1.18074e-17 0.125198 0.500124 10.3722 -6.51271
261 1 Ti 0.250033 2.35534e-17 0.499938 5.28926 -8.24819
262 1 Ti 0.374969 0.124996 0.499969 10.6129 -8.24746
263 2 N 0.374963 3.62445e-17 0.499963 10.6121 -6.52888
264 2 N 0.24995 0.124988 0.499894 5.28962 -6.52746
265 1 Ti 0.5 4.02168e-17 0.500015 15.924 -8.24877
266 2 N 0.5 0.124999 0.499983 5.30501 -6.52665
267 1 Ti 0.625031 0.124996 0.499969 10.6129 -8.24746
268 1 Ti 0.749967 2.06355e-17 0.499938 5.28926 -8.24819
269 2 N 0.625037 4.72199e-17 0.499963 10.6121 -6.52888
270 2 N 0.75005 0.124988 0.499894 5.28962 -6.52746
271 1 Ti 0.875033 0.124967 0.499831 5.28652 -8.24298
272 2 N 0.874802 -6.78101e-18 0.500124 10.3722 -6.51271
273 1 Ti 1.71219e-17 0.250033 0.499938 5.28926 -8.24819
274 1 Ti 0.124996 0.374969 0.499969 10.6129 -8.24746
275 2 N 0.124988 0.24995 0.499894 5.28962 -6.52746
276 2 N 4.04837e-17 0.374963 0.499963 10.6121 -6.52888
277 1 Ti 0.249978 0.249978 0.499964 5.32348e-06 -8.24791
278 1 Ti 0.374992 0.374992 0.499992 3.42477e-07 -8.24822
279 2 N 0.374982 0.249988 0.499982 8.99998e-07 -6.52645
280 2 N 0.249988 0.374982 0.499982 8.99998e-07 -6.52645
281 1 Ti 0.5 0.249993 0.499989 5.31238 -8.24807
282 2 N 0.5 0.374993 0.499993 10.6265 -6.52607
283 1 Ti 0.625008 0.374992 0.499992 3.42477e-07 -8.24822
284 1 Ti 0.750022 0.249978 0.499964 5.32348e-06 -8.24791
285 2 N 0.625018 0.249988 0.499982 8.99998e-07 -6.52645
286 2 N 0.750012 0.374982 0.499982 8.99998e-07 -6.52645
287 1 Ti 0.875004 0.374969 0.499969 10.6129 -8.24746
288 2 N 0.875012 0.24995 0.499894 5.28962 -6.52746
289 1 Ti 3.39777e-17 0.5 0.500015 10.6149 -8.24877
290 2 N 0.124999 0.5 0.499983 5.30501 -6.52665
291 1 Ti 0.249993 0.5 0.499989 5.31238 -8.24807
292 2 N 0.374993 0.5 0.499993 10.6265 -6.52607
293 1 Ti 0.5 0.5 0.499996 5.31319 -8.24827
294 1 Ti 0.750007 0.5 0.499989 5.31238 -8.24807
295 2 N 0.625007 0.5 0.499993 10.6265 -6.52607
296 2 N 0.875001 0.5 0.499983 5.30501 -6.52665
297 1 Ti 0.124996 0.625031 0.499969 10.6129 -8.24746
298 1 Ti 1.28786e-17 0.749967 0.499938 5.28926 -8.24819
299 2 N 4.2279e-17 0.625037 0.499963 10.6121 -6.52888
300 2 N 0.124988 0.75005 0.499894 5.28962 -6.52746
301 1 Ti 0.374992 0.625008 0.499992 3.42477e-07 -8.24822
302 1 Ti 0.249978 0.750022 0.499964 5.32348e-06 -8.24791
303 2 N 0.249988 0.625018 0.499982 8.99998e-07 -6.52645
304 2 N 0.374982 0.750012 0.499982 8.99998e-07 -6.52645
305 1 Ti 0.5 0.750007 0.499989 5.31238 -8.24807
306 2 N 0.5 0.625007 0.499993 10.6265 -6.52607
307 1 Ti 0.625008 0.625008 0.499992 3.42477e-07 -8.24822
308 1 Ti 0.750022 0.750022 0.499964 5.32348e-06 -8.24791
309 2 N 0.750012 0.625018 0.499982 8.99998e-07 -6.52645
310 2 N 0.625018 0.750012 0.499982 8.99998e-07 -6.52645
311 1 Ti 0.875004 0.625031 0.499969 10.6129 -8.24746
312 2 N 0.875012 0.75005 0.499894 5.28962 -6.52746
313 1 Ti 0.124967 0.875033 0.499831 5.28652 -8.24298
314 2 N -1.78847e-17 0.874802 0.500124 10.3722 -6.51271
315 1 Ti 0.374969 0.875004 0.499969 10.6129 -8.24746
316 2 N 0.24995 0.875012 0.499894 5.28962 -6.52746
317 2 N 0.5 0.875001 0.499983 5.30501 -6.52665
318 1 Ti 0.625031 0.875004 0.499969 10.6129 -8.24746
319 2 N 0.75005 0.875012 0.499894 5.28962 -6.52746
320 1 Ti 0.875033 0.875033 0.499831 5.28652 -8.24298
321 1 Ti 0.125101 1.28269e-19 0.625 5.21804 -8.251
322 1 Ti -1.66454e-17 0.125101 0.625 5.21804 -8.251
323 1 Ti -7.1305e-18 -1.31189e-17 0.748865 15.3997 -8.27791
324 1 Ti 0.124967 0.124967 0.750169 5.28652 -8.24298
325 2 N -3.28133e-17 -3.16529e-17 0.625 5.30247 -6.53974
326 2 N 0.125013 0.125013 0.625 10.605 -6.52229
327 2 N 0.125198 -7.5978e-18 0.749876 10.3722 -6.51271
328 2 N -8.44195e-18 0.125198 0.749876 10.3722 -6.51271
329 1 Ti 0.375015 3.25464e-17 0.625 15.924 -8.24877
330 1 Ti 0.249984 0.124996 0.625 10.6078 -8.24633
331 1 Ti 0.250033 1.93375e-17 0.750062 5.28926 -8.24819
332 1 Ti 0.374969 0.124996 0.750031 10.6129 -8.24746
333 2 N 0.250071 1.83385e-17 0.625 5.29818 -6.52338
334 2 N 0.374983 0.124999 0.625 5.30501 -6.52665
335 2 N 0.374963 4.54453e-17 0.750037 10.6121 -6.52888
336 2 N 0.24995 0.124988 0.750106 5.28962 -6.52746
337 1 Ti 0.5 0.125 0.625 5.31179 -8.24785
338 1 Ti 0.5 2.59714e-17 0.749985 15.924 -8.24877
339 2 N 0.5 2.79016e-17 0.625 5.31294 -6.52786
340 2 N 0.5 0.124999 0.750017 5.30501 -6.52665
341 1 Ti 0.624985 3.72347e-17 0.625 15.924 -8.24877
342 1 Ti 0.750016 0.124996 0.625 10.6078 -8.24633
343 1 Ti 0.625031 0.124996 0.750031 10.6129 -8.24746
344 1 Ti 0.749967 2.09537e-17 0.750062 5.28926 -8.24819
345 2 N 0.625017 0.124999 0.625 5.30501 -6.52665
346 2 N 0.625037 3.70153e-17 0.750037 10.6121 -6.52888
347 2 N 0.749929 4.04957e-18 0.625 5.29818 -6.52338
348 2 N 0.75005 0.124988 0.750106 5.28962 -6.52746
349 1 Ti 0.874899 -8.75898e-18 0.625 5.21804 -8.251
350 1 Ti 0.875033 0.124967 0.750169 5.28652 -8.24298
351 2 N 0.874987 0.125013 0.625 10.605 -6.52229
352 2 N 0.874802 -8.52407e-18 0.749876 10.3722 -6.51271
353 1 Ti 0.124996 0.249984 0.625 10.6078 -8.24633
354 1 Ti 2.39062e-17 0.375015 0.625 15.924 -8.24877
355 1 Ti 2.09183e-17 0.250033 0.750062 5.28926 -8.24819
356 1 Ti 0.124996 0.374969 0.750031 10.6129 -8.24746
357 2 N 1.86642e-17 0.250071 0.625 5.29818 -6.52338
358 2 N 0.124999 0.374983 0.625 5.30501 -6.52665
359 2 N 0.124988 0.24995 0.750106 5.28962 -6.52746
360 2 N 2.55408e-17 0.374963 0.750037 10.6121 -6.52888
361 1 Ti 0.374989 0.249993 0.625 5.31238 -8.24807
362 1 Ti 0.249993 0.374989 0.625 5.31238 -8.24807
363 1 Ti 0.249978 0.249978 0.750036 5.32348e-06 -8.24791
364 1 Ti 0.374992 0.374992 0.750008 3.42477e-07 -8.24822
365 2 N 0.249982 0.249982 0.625 10.6189 -6.52697
366 2 N 0.374993 0.374993 0.625 10.6265 -6.52607
367 2 N 0.374982 0.249988 0.750018 8.99998e-07 -6.52645
368 2 N 0.249988 0.374982 0.750018 8.99998e-07 -6.52645
369 1 Ti 0.5 0.374996 0.625 5.31319 -8.24827
370 1 Ti 0.5 0.249993 0.750011 5.31238 -8.24807
371 2 N 0.5 0.249994 0.625 5.31275 -6.52612
372 2 N 0.5 0.374993 0.750007 10.6265 -6.52607
373 1 Ti 0.625011 0.249993 0.625 5.31238 -8.24807
374 1 Ti 0.750007 0.374989 0.625 5.31238 -8.24807
375 1 Ti 0.625008 0.374992 0.750008 3.42477e-07 -8.24822
376 1 Ti 0.750022 0.249978 0.750036 5.32348e-06 -8.24791
377 2 N 0.625007 0.374993 0.625 10.6265 -6.52607
378 2 N 0.625018 0.249988 0.750018 8.99998e-07 -6.52645
379 2 N 0.750018 0.249982 0.625 10.6189 -6.52697
380 2 N 0.750012 0.374982 0.750018 8.99998e-07 -6.52645
381 1 Ti 0.875004 0.249984 0.625 10.6078 -8.24633
382 1 Ti 0.875004 0.374969 0.750031 10.6129 -8.24746
383 2 N 0.875001 0.374983 0.625 5.30501 -6.52665
384 2 N 0.875012 0.24995 0.750106 5.28962 -6.52746
385 1 Ti 0.125 0.5 0.625 5.31179 -8.24785
386 1 Ti -1.09571e-17 0.5 0.749985 10.6149 -8.24877
387 2 N 1.28269e-17 0.5 0.625 5.31294 -6.52786
388 2 N 0.124999 0.5 0.750017 5.30501 -6.52665
389 1 Ti 0.374996 0.5 0.625 5.31319 -8.24827
390 1 Ti 0.249993 0.5 0.750011 5.31238 -8.24807
391 2 N 0.249994 0.5 0.625 5.31275 -6.52612
392 2 N 0.374993 0.5 0.750007 10.6265 -6.52607
393 1 Ti 0.5 0.5 0.750004 5.31319 -8.24827
394 2 N 0.5 0.5 0.625 0 -6.52595
395 1 Ti 0.625004 0.5 0.625 5.31319 -8.24827
396 1 Ti 0.750007 0.5 0.750011 5.31238 -8.24807
397 2 N 0.625007 0.5 0.750007 10.6265 -6.52607
398 2 N 0.750006 0.5 0.625 5.31275 -6.52612
399 1 Ti 0.875 0.5 0.625 5.31179 -8.24785
400 2 N 0.875001 0.5 0.750017 5.30501 -6.52665
401 1 Ti 2.49028e-17 0.624985 0.625 15.924 -8.24877
402 1 Ti 0.124996 0.750016 0.625 10.6078 -8.24633
403 1 Ti 0.124996 0.625031 0.750031 10.6129 -8.24746
404 1 Ti 2.08031e-17 0.749967 0.750062 5.28926 -8.24819
405 2 N 0.124999 0.625017 0.625 5.30501 -6.52665
406 2 N 3.08731e-17 0.625037 0.750037 10.6121 -6.52888
407 2 N 1.74297e-17 0.749929 0.625 5.29818 -6.52338
408 2 N 0.124988 0.75005 0.750106 5.28962 -6.52746
409 1 Ti 0.249993 0.625011 0.625 5.31238 -8.24807
410 1 Ti 0.374989 0.750007 0.625 5.31238 -8.24807
411 1 Ti 0.374992 0.625008 0.750008 3.42477e-07 -8.24822
412 1 Ti 0.249978 0.750022 0.750036 5.32348e-06 -8.24791
413 2 N 0.374993 0.625007 0.625 10.6265 -6.52607
414 2 N 0.249988 0.625018 0.750018 8.99998e-07 -6.52645
415 2 N 0.249982 0.750018 0.625 10.6189 -6.52697
416 2 N 0.374982 0.750012 0.750018 8.99998e-07 -6.52645
417 1 Ti 0.5 0.625004 0.625 5.31319 -8.24827
418 1 Ti 0.5 0.750007 0.750011 5.31238 -8.24807
419 2 N 0.5 0.625007 0.750007 10.6265 -6.52607
420 2 N 0.5 0.750006 0.625 5.31275 -6.52612
421 1 Ti 0.750007 0.625011 0.625 5.31238 -8.24807
422 1 Ti 0.625011 0.750007 0.625 5.31238 -8.24807
423 1 Ti 0.625008 0.625008 0.750008 3.42477e-07 -8.24822
424 1 Ti 0.750022 0.750022 0.750036 5.32348e-06 -8.24791
425 2 N 0.625007 0.625007 0.625 10.6265 -6.52607
426 2 N 0.750012 0.625018 0.750018 8.99998e-07 -6.52645
427 2 N 0.625018 0.750012 0.750018 8.99998e-07 -6.52645
428 2 N 0.750018 0.750018 0.625 10.6189 -6.52697
429 1 Ti 0.875004 0.750016 0.625 10.6078 -8.24633
430 1 Ti 0.875004 0.625031 0.750031 10.6129 -8.24746
431 2 N 0.875001 0.625017 0.625 5.30501 -6.52665
432 2 N 0.875012 0.75005 0.750106 5.28962 -6.52746
433 1 Ti -7.54411e-18 0.874899 0.625 5.21804 -8.251
434 1 Ti 0.124967 0.875033 0.750169 5.28652 -8.24298
435 2 N 0.125013 0.874987 0.625 10.605 -6.52229
436 2 N 3.76953e-18 0.874802 0.749876 10.3722 -6.51271
437 1 Ti 0.249984 0.875004 0.625 10.6078 -8.24633
438 1 Ti 0.374969 0.875004 0.750031 10.6129 -8.24746
439 2 N 0.374983 0.875001 0.625 5.30501 -6.52665
440 2 N 0.24995 0.875012 0.750106 5.28962 -6.52746
441 1 Ti 0.5 0.875 0.625 5.31179 -8.24785
442 2 N 0.5 0.875001 0.750017 5.30501 -6.52665
443 1 Ti 0.750016 0.875004 0.625 10.6078 -8.24633
444 1 Ti 0.625031 0.875004 0.750031 10.6129 -8.24746
445 2 N 0.625017 0.875001 0.625 5.30501 -6.52665
446 2 N 0.75005 0.875012 0.750106 5.28962 -6.52746
447 1 Ti 0.875033 0.875033 0.750169 5.28652 -8.24298
448 2 N 0.874987 0.874987 0.625 10.605 -6.52229
449 1 Ti 0.125265 3.02443e-18 0.875236 14.6473 -8.22112
450 1 Ti 2.13773e-17 0.125265 0.875236 14.6473 -8.22112
451 2 N -4.5855e-17 -6.24198e-17 0.872119 14.5174 -6.53786
452 2 N 0.124798 0.124798 0.875483 5.26207 -6.54199
453 1 Ti 0.374938 5.37119e-18 0.874967 5.28926 -8.24819
454 1 Ti 0.24986 0.124986 0.87514 10.5454 -8.24691
455 2 N 0.249705 5.27217e-17 0.875295 10.5342 -6.54812
456 2 N 0.374894 0.124988 0.87505 5.28962 -6.52746
457 1 Ti 0.5 0.124996 0.875016 10.6078 -8.24633
458 2 N 0.5 -8.25341e-18 0.874929 5.29818 -6.52338
459 1 Ti 0.625062 1.82651e-17 0.874967 5.28926 -8.24819
460 1 Ti 0.75014 0.124986 0.87514 10.5454 -8.24691
461 2 N 0.625106 0.124988 0.87505 5.28962 -6.52746
462 2 N 0.750295 3.70281e-18 0.875295 10.5342 -6.54812
463 1 Ti 0.874735 -2.53084e-17 0.875236 14.6473 -8.22112
464 2 N 0.875202 0.124798 0.875483 5.26207 -6.54199
465 1 Ti 0.124986 0.24986 0.87514 10.5454 -8.24691
466 1 Ti 2.24909e-17 0.374938 0.874967 5.28926 -8.24819
467 2 N 3.42176e-17 0.249705 0.875295 10.5342 -6.54812
468 2 N 0.124988 0.374894 0.87505 5.28962 -6.52746
469 1 Ti 0.374964 0.249978 0.875022 5.32348e-06 -8.24791
470 1 Ti 0.249978 0.374964 0.875022 5.32348e-06 -8.24791
471 2 N 0.249931 0.249931 0.875069 1.15778e-05 -6.52851
472 2 N 0.374982 0.374982 0.875012 8.99998e-07 -6.52645
473 1 Ti 0.5 0.374989 0.875007 5.31238 -8.24807
474 2 N 0.5 0.249982 0.875018 10.6189 -6.52697
475 1 Ti 0.625036 0.249978 0.875022 5.32348e-06 -8.24791
476 1 Ti 0.750022 0.374964 0.875022 5.32348e-06 -8.24791
477 2 N 0.625018 0.374982 0.875012 8.99998e-07 -6.52645
478 2 N 0.750069 0.249931 0.875069 1.15778e-05 -6.52851
479 1 Ti 0.875014 0.24986 0.87514 10.5454 -8.24691
480 2 N 0.875012 0.374894 0.87505 5.28962 -6.52746
481 1 Ti 0.124996 0.5 0.875016 10.6078 -8.24633
482 2 N 1.82773e-17 0.5 0.874929 5.29818 -6.52338
483 1 Ti 0.374989 0.5 0.875007 5.31238 -8.24807
484 2 N 0.249982 0.5 0.875018 10.6189 -6.52697
485 2 N 0.5 0.5 0.875006 5.31275 -6.52612
486 1 Ti 0.625011 0.5 0.875007 5.31238 -8.24807
487 2 N 0.750018 0.5 0.875018 10.6189 -6.52697
488 1 Ti 0.875004 0.5 0.875016 10.6078 -8.24633
489 1 Ti 3.90048e-17 0.625062 0.874967 5.28926 -8.24819
490 1 Ti 0.124986 0.75014 0.87514 10.5454 -8.24691
491 2 N 0.124988 0.625106 0.87505 5.28962 -6.52746
492 2 N 5.52299e-17 0.750295 0.875295 10.5342 -6.54812
493 1 Ti 0.249978 0.625036 0.875022 5.32348e-06 -8.24791
494 1 Ti 0.374964 0.750022 0.875022 5.32348e-06 -8.24791
495 2 N 0.374982 0.625018 0.875012 8.99998e-07 -6.52645
496 2 N 0.249931 0.750069 0.875069 1.15778e-05 -6.52851
497 1 Ti 0.5 0.625011 0.875007 5.31238 -8.24807
498 2 N 0.5 0.750018 0.875018 10.6189 -6.52697
499 1 Ti 0.750022 0.625036 0.875022 5.32348e-06 -8.24791
500 1 Ti 0.625036 0.750022 0.875022 5.32348e-06 -8.24791
501 2 N 0.625018 0.625018 0.875012 8.99998e-07 -6.52645
502 2 N 0.750069 0.750069 0.875069 1.15778e-05 -6.52851
503 1 Ti 0.875014 0.75014 0.87514 10.5454 -8.24691
504 2 N 0.875012 0.625106 0.87505 5.28962 -6.52746
505 1 Ti 1.93955e-17 0.874735 0.875236 14.6473 -8.22112
506 2 N 0.124798 0.875202 0.875483 5.26207 -6.54199
507 1 Ti 0.24986 0.875014 0.87514 10.5454 -8.24691
508 2 N 0.374894 0.875012 0.87505 5.28962 -6.52746
509 1 Ti 0.5 0.875004 0.875016 10.6078 -8.24633
510 1 Ti 0.75014 0.875014 0.87514 10.5454 -8.24691
511 2 N 0.625106 0.875012 0.87505 5.28962 -6.52746
7 2 N 0.875202 0.875202 0.875483 5.26207 -6.54199
