ITEM: TIMESTEP
36
ITEM: NUMBER OF ATOMS
1727
ITEM: BOX BOUNDS pp pp pp
0.0000000000000000e+00 2.7660000000000004e+01
0.0000000000000000e+00 2.7660000000000004e+01
0.0000000000000000e+00 2.7660000000000004e+01
ITEM: ATOMS id type element xs ys zs c_csym c_eng
1 1 Ti -1.96812e-17 2.30032e-18 -0.0074833 10.9038 -7.25577
2 1 Ti 0.0830371 0.0830371 0.000296205 10.6142 -8.26919
3 1 Ti 0.0908166 -2.54433e-17 0.0833333 10.9038 -7.25577
4 1 Ti -4.87201e-17 0.0908166 0.0833333 10.9038 -7.25577
5 2 N 0.081835 -9.90691e-18 0.00149835 5.18784 -6.66768
6 2 N -5.7057e-17 0.081835 0.00149835 5.18784 -6.66768
8 2 N 0.081835 0.081835 0.0833333 5.18784 -6.66768
9 1 Ti 0.166522 -4.21841e-17 -0.000169503 14.6474 -8.22092
10 1 Ti 0.249878 0.0833048 2.8491e-05 15.8535 -8.24382
11 1 Ti 0.250866 -4.70132e-17 0.0833333 15.3528 -8.27549
12 1 Ti 0.166522 0.0835028 0.0833333 14.6474 -8.22092
13 2 N 0.250114 -5.63626e-17 -0.000111848 10.37 -6.5127
14 2 N 0.166342 0.083191 0.000142346 5.26107 -6.54209
15 2 N 0.168622 2.4957e-17 0.0833333 14.5093 -6.53728
16 2 N 0.250114 0.0834452 0.0833333 10.37 -6.5127
17 1 Ti 0.333394 -3.79959e-17 -3.28988e-05 10.5141 -8.25012
18 1 Ti 0.416659 0.0833358 -2.48234e-06 1.87776e-05 -8.24833
19 1 Ti 0.416762 -4.12181e-17 0.0833333 15.8765 -8.25222
20 1 Ti 0.333394 0.0833662 0.0833333 10.5141 -8.25012
21 2 N 0.416694 -2.07706e-17 -2.02278e-05 10.5954 -6.52485
22 2 N 0.333314 0.0833358 -2.49372e-06 0.000106547 -6.52356
23 2 N 0.333569 -4.75789e-17 0.0833333 15.7929 -6.53251
24 2 N 0.416694 0.0833536 0.0833333 10.5954 -6.52485
25 1 Ti 0.5 -3.60309e-17 -1.133e-05 5.30084 -8.2495
26 1 Ti 0.5 0.0833447 0.0833333 5.30084 -8.2495
27 2 N 0.5 0.083339 -5.64684e-06 10.619 -6.5248
28 2 N 0.5 -5.38805e-17 0.0833333 5.30949 -6.52652
29 1 Ti 0.583341 0.0833358 -2.48234e-06 1.87776e-05 -8.24833
30 1 Ti 0.583238 -6.60509e-17 0.0833333 15.8765 -8.25222
31 1 Ti 0.666606 -1.68227e-17 -3.28988e-05 10.5141 -8.25012
32 1 Ti 0.666606 0.0833662 0.0833333 10.5141 -8.25012
33 2 N 0.583306 2.11547e-17 -2.02278e-05 10.5954 -6.52485
34 2 N 0.666686 0.0833358 -2.49372e-06 0.000106547 -6.52356
35 2 N 0.583306 0.0833536 0.0833333 10.5954 -6.52485
36 2 N 0.666431 -5.15253e-17 0.0833333 15.7929 -6.53251
37 1 Ti 0.750122 0.0833048 2.8491e-05 15.8535 -8.24382
38 1 Ti 0.749134 -4.77368e-17 0.0833333 15.3528 -8.27549
39 1 Ti 0.833478 -3.80987e-17 -0.000169503 14.6474 -8.22092
40 1 Ti 0.833478 0.0835028 0.0833333 14.6474 -8.22092
41 2 N 0.749886 -2.78385e-17 -0.000111848 10.37 -6.5127
42 2 N 0.833658 0.083191 0.000142346 5.26107 -6.54209
43 2 N 0.749886 0.0834452 0.0833333 10.37 -6.5127
44 2 N 0.831378 2.89074e-17 0.0833333 14.5093 -6.53728
45 1 Ti 0.916963 0.0830371 0.000296205 15.9172 -8.26919
46 1 Ti 0.909183 -9.26095e-18 0.0833333 10.9038 -7.25577
47 2 N 0.918165 -1.18686e-17 0.00149835 5.18784 -6.66768
48 2 N 0.918165 0.081835 0.0833333 5.18784 -6.66768
49 1 Ti -4.06656e-17 0.166522 -0.000169503 14.6474 -8.22092
50 1 Ti 0.0833048 0.249878 2.8491e-05 15.8535 -8.24382
51 1 Ti 0.0835028 0.166522 0.0833333 14.6474 -8.22092
52 1 Ti -5.68996e-17 0.250866 0.0833333 15.3528 -8.27549
53 2 N 0.083191 0.166342 0.000142346 5.26107 -6.54209
54 2 N -6.08431e-17 0.250114 -0.000111848 10.37 -6.5127
55 2 N -3.89964e-17 0.168622 0.0833333 14.5093 -6.53728
56 2 N 0.0834452 0.250114 0.0833333 10.37 -6.5127
57 1 Ti 0.166562 0.166562 1.56517e-05 10.5441 -8.24766
58 1 Ti 0.249964 0.249964 5.60723e-06 10.6121 -8.24826
59 1 Ti 0.249953 0.166673 0.0833333 15.8775 -8.2483
60 1 Ti 0.166673 0.249953 0.0833333 15.8775 -8.2483
61 2 N 0.249911 0.166623 1.3428e-05 5.29051 -6.52724
62 2 N 0.166623 0.249911 1.3428e-05 5.29051 -6.52724
63 2 N 0.166462 0.166462 0.0833333 10.5322 -6.54806
64 2 N 0.249961 0.249961 0.0833333 10.6129 -6.52851
65 1 Ti 0.333292 0.166656 3.69153e-06 10.6158 -8.24771
66 1 Ti 0.416655 0.249996 1.21955e-06 5.31127 -8.24838
67 1 Ti 0.416664 0.166678 0.0833333 10.6153 -8.24895
68 1 Ti 0.333316 0.249999 0.0833333 10.6197 -8.24883
69 2 N 0.416652 0.166667 -4.82463e-07 10.6223 -6.5251
70 2 N 0.333307 0.249986 2.24205e-06 5.30806 -6.52572
71 2 N 0.333326 0.166688 0.0833333 10.6014 -6.52412
72 2 N 0.41666 0.250004 0.0833333 5.31077 -6.5253
73 1 Ti 0.5 0.166668 -1.76923e-07 5.31182 -8.24833
74 1 Ti 0.5 0.250004 0.0833333 5.31136 -8.24873
75 2 N 0.5 0.249998 2.62777e-07 5.31152 -6.52538
76 2 N 0.5 0.166678 0.0833333 5.30949 -6.5251
77 1 Ti 0.583345 0.249996 1.21955e-06 5.31127 -8.24838
78 1 Ti 0.583336 0.166678 0.0833333 10.6153 -8.24895
79 1 Ti 0.666708 0.166656 3.69153e-06 10.6158 -8.24771
80 1 Ti 0.666684 0.249999 0.0833333 10.6197 -8.24883
81 2 N 0.583348 0.166667 -4.82463e-07 10.6223 -6.5251
82 2 N 0.666693 0.249986 2.24205e-06 5.30806 -6.52572
83 2 N 0.58334 0.250004 0.0833333 5.31077 -6.5253
84 2 N 0.666674 0.166688 0.0833333 10.6014 -6.52412
85 1 Ti 0.750036 0.249964 5.60723e-06 10.6121 -8.24826
86 1 Ti 0.750047 0.166673 0.0833333 15.8775 -8.2483
87 1 Ti 0.833438 0.166562 1.56517e-05 10.5441 -8.24766
88 1 Ti 0.833327 0.249953 0.0833333 15.8775 -8.2483
89 2 N 0.750089 0.166623 1.3428e-05 5.29051 -6.52724
90 2 N 0.833377 0.249911 1.3428e-05 5.29051 -6.52724
91 2 N 0.750039 0.249961 0.0833333 10.6129 -6.52851
92 2 N 0.833538 0.166462 0.0833333 10.5322 -6.54806
93 1 Ti 0.916695 0.249878 2.8491e-05 15.8535 -8.24382
94 1 Ti 0.916497 0.166522 0.0833333 14.6474 -8.22092
95 2 N 0.916809 0.166342 0.000142346 5.26107 -6.54209
96 2 N 0.916555 0.250114 0.0833333 10.37 -6.5127
97 1 Ti -4.31705e-17 0.333394 -3.28988e-05 10.5141 -8.25012
98 1 Ti 0.0833358 0.416659 -2.48234e-06 1.87776e-05 -8.24833
99 1 Ti 0.0833662 0.333394 0.0833333 10.5141 -8.25012
100 1 Ti -3.70088e-17 0.416762 0.0833333 15.8765 -8.25222
101 2 N 0.0833358 0.333314 -2.49372e-06 0.000106547 -6.52356
102 2 N -4.70491e-17 0.416694 -2.02278e-05 10.5954 -6.52485
103 2 N -6.87238e-17 0.333569 0.0833333 15.7929 -6.53251
104 2 N 0.0833536 0.416694 0.0833333 10.5954 -6.52485
105 1 Ti 0.166656 0.333292 3.69153e-06 10.6158 -8.24771
106 1 Ti 0.249996 0.416655 1.21955e-06 5.31127 -8.24838
107 1 Ti 0.249999 0.333316 0.0833333 10.6197 -8.24883
108 1 Ti 0.166678 0.416664 0.0833333 10.6153 -8.24895
109 2 N 0.249986 0.333307 2.24205e-06 5.30806 -6.52572
110 2 N 0.166667 0.416652 -4.82463e-07 10.6223 -6.5251
111 2 N 0.166688 0.333326 0.0833333 10.6014 -6.52412
112 2 N 0.250004 0.41666 0.0833333 5.31077 -6.5253
113 1 Ti 0.333322 0.333322 1.25725e-06 10.6229 -8.2485
114 1 Ti 0.416664 0.416664 5.27612e-07 5.31277 -8.24858
115 1 Ti 0.416662 0.333332 0.0833333 2.59369e-07 -8.24872
116 1 Ti 0.333332 0.416662 0.0833333 2.59369e-07 -8.24872
117 2 N 0.41666 0.333328 5.64042e-07 10.6245 -6.52548
118 2 N 0.333328 0.41666 5.64042e-07 10.6245 -6.52548
119 2 N 0.333324 0.333324 0.0833333 10.6249 -6.5259
120 2 N 0.416665 0.416665 0.0833333 10.626 -6.5255
121 1 Ti 0.5 0.333331 6.34928e-07 5.31225 -8.24854
122 1 Ti 0.5 0.416666 0.0833333 5.31293 -8.2487
123 2 N 0.5 0.416665 2.98101e-07 5.31275 -6.52543
124 2 N 0.5 0.333333 0.0833333 5.31239 -6.52543
125 1 Ti 0.583336 0.416664 5.27612e-07 5.31277 -8.24858
126 1 Ti 0.583338 0.333332 0.0833333 2.59369e-07 -8.24872
127 1 Ti 0.666678 0.333322 1.25725e-06 10.6229 -8.2485
128 1 Ti 0.666668 0.416662 0.0833333 2.59369e-07 -8.24872
129 2 N 0.58334 0.333328 5.64042e-07 10.6245 -6.52548
130 2 N 0.666672 0.41666 5.64042e-07 10.6245 -6.52548
131 2 N 0.583335 0.416665 0.0833333 10.626 -6.5255
132 2 N 0.666676 0.333324 0.0833333 10.6249 -6.5259
133 1 Ti 0.750004 0.416655 1.21955e-06 5.31127 -8.24838
134 1 Ti 0.750001 0.333316 0.0833333 10.6197 -8.24883
135 1 Ti 0.833344 0.333292 3.69153e-06 10.6158 -8.24771
136 1 Ti 0.833322 0.416664 0.0833333 10.6153 -8.24895
137 2 N 0.750014 0.333307 2.24205e-06 5.30806 -6.52572
138 2 N 0.833333 0.416652 -4.82463e-07 10.6223 -6.5251
139 2 N 0.749996 0.41666 0.0833333 5.31077 -6.5253
140 2 N 0.833312 0.333326 0.0833333 10.6014 -6.52412
141 1 Ti 0.916664 0.416659 -2.48234e-06 1.87776e-05 -8.24833
142 1 Ti 0.916634 0.333394 0.0833333 10.5141 -8.25012
143 2 N 0.916664 0.333314 -2.49372e-06 0.000106547 -6.52356
144 2 N 0.916646 0.416694 0.0833333 10.5954 -6.52485
145 1 Ti -2.47158e-17 0.5 -1.133e-05 5.30084 -8.2495
146 1 Ti 0.0833447 0.5 0.0833333 5.30084 -8.2495
147 2 N 0.083339 0.5 -5.64684e-06 10.619 -6.5248
148 2 N -3.80406e-17 0.5 0.0833333 5.30949 -6.52652
149 1 Ti 0.166668 0.5 -1.76923e-07 5.31182 -8.24833
150 1 Ti 0.250004 0.5 0.0833333 5.31136 -8.24873
151 2 N 0.249998 0.5 2.62777e-07 5.31152 -6.52538
152 2 N 0.166678 0.5 0.0833333 5.30949 -6.5251
153 1 Ti 0.333331 0.5 6.34928e-07 5.31225 -8.24854
154 1 Ti 0.416666 0.5 0.0833333 5.31293 -8.2487
155 2 N 0.416665 0.5 2.98101e-07 5.31275 -6.52543
156 2 N 0.333333 0.5 0.0833333 5.31239 -6.52543
157 1 Ti 0.5 0.5 3.78225e-07 5.31293 -8.24861
158 2 N 0.5 0.5 0.0833333 5.31299 -6.52545
159 1 Ti 0.583334 0.5 0.0833333 5.31293 -8.2487
160 1 Ti 0.666669 0.5 6.34928e-07 5.31225 -8.24854
161 2 N 0.583335 0.5 2.98101e-07 5.31275 -6.52543
162 2 N 0.666667 0.5 0.0833333 5.31239 -6.52543
163 1 Ti 0.749996 0.5 0.0833333 5.31136 -8.24873
164 1 Ti 0.833332 0.5 -1.76923e-07 5.31182 -8.24833
165 2 N 0.750002 0.5 2.62777e-07 5.31152 -6.52538
166 2 N 0.833322 0.5 0.0833333 5.30949 -6.5251
167 1 Ti 0.916655 0.5 0.0833333 5.30084 -8.2495
168 2 N 0.916661 0.5 -5.64684e-06 10.619 -6.5248
169 1 Ti 0.0833358 0.583341 -2.48234e-06 1.87776e-05 -8.24833
170 1 Ti -4.09277e-17 0.583238 0.0833333 15.8765 -8.25222
171 1 Ti -5.32211e-17 0.666606 -3.28988e-05 10.5141 -8.25012
172 1 Ti 0.0833662 0.666606 0.0833333 10.5141 -8.25012
173 2 N -3.31605e-17 0.583306 -2.02278e-05 10.5954 -6.52485
174 2 N 0.0833358 0.666686 -2.49372e-06 0.000106547 -6.52356
175 2 N 0.0833536 0.583306 0.0833333 10.5954 -6.52485
176 2 N -1.56681e-17 0.666431 0.0833333 15.7929 -6.53251
177 1 Ti 0.249996 0.583345 1.21955e-06 5.31127 -8.24838
178 1 Ti 0.166678 0.583336 0.0833333 10.6153 -8.24895
179 1 Ti 0.166656 0.666708 3.69153e-06 10.6158 -8.24771
180 1 Ti 0.249999 0.666684 0.0833333 10.6197 -8.24883
181 2 N 0.166667 0.583348 -4.82463e-07 10.6223 -6.5251
182 2 N 0.249986 0.666693 2.24205e-06 5.30806 -6.52572
183 2 N 0.250004 0.58334 0.0833333 5.31077 -6.5253
184 2 N 0.166688 0.666674 0.0833333 10.6014 -6.52412
185 1 Ti 0.416664 0.583336 5.27612e-07 5.31277 -8.24858
186 1 Ti 0.333332 0.583338 0.0833333 2.59369e-07 -8.24872
187 1 Ti 0.333322 0.666678 1.25725e-06 10.6229 -8.2485
188 1 Ti 0.416662 0.666668 0.0833333 2.59369e-07 -8.24872
189 2 N 0.333328 0.58334 5.64042e-07 10.6245 -6.52548
190 2 N 0.41666 0.666672 5.64042e-07 10.6245 -6.52548
191 2 N 0.416665 0.583335 0.0833333 10.626 -6.5255
192 2 N 0.333324 0.666676 0.0833333 10.6249 -6.5259
193 1 Ti 0.5 0.583334 0.0833333 5.31293 -8.2487
194 1 Ti 0.5 0.666669 6.34928e-07 5.31225 -8.24854
195 2 N 0.5 0.583335 2.98101e-07 5.31275 -6.52543
196 2 N 0.5 0.666667 0.0833333 5.31239 -6.52543
197 1 Ti 0.583336 0.583336 5.27612e-07 5.31277 -8.24858
198 1 Ti 0.666668 0.583338 0.0833333 2.59369e-07 -8.24872
199 1 Ti 0.583338 0.666668 0.0833333 2.59369e-07 -8.24872
200 1 Ti 0.666678 0.666678 1.25725e-06 10.6229 -8.2485
201 2 N 0.666672 0.58334 5.64042e-07 10.6245 -6.52548
202 2 N 0.58334 0.666672 5.64042e-07 10.6245 -6.52548
203 2 N 0.583335 0.583335 0.0833333 10.626 -6.5255
204 2 N 0.666676 0.666676 0.0833333 10.6249 -6.5259
205 1 Ti 0.750004 0.583345 1.21955e-06 5.31127 -8.24838
206 1 Ti 0.833322 0.583336 0.0833333 10.6153 -8.24895
207 1 Ti 0.750001 0.666684 0.0833333 10.6197 -8.24883
208 1 Ti 0.833344 0.666708 3.69153e-06 10.6158 -8.24771
209 2 N 0.833333 0.583348 -4.82463e-07 10.6223 -6.5251
210 2 N 0.750014 0.666693 2.24205e-06 5.30806 -6.52572
211 2 N 0.749996 0.58334 0.0833333 5.31077 -6.5253
212 2 N 0.833312 0.666674 0.0833333 10.6014 -6.52412
213 1 Ti 0.916664 0.583341 -2.48234e-06 1.87776e-05 -8.24833
214 1 Ti 0.916634 0.666606 0.0833333 10.5141 -8.25012
215 2 N 0.916664 0.666686 -2.49372e-06 0.000106547 -6.52356
216 2 N 0.916646 0.583306 0.0833333 10.5954 -6.52485
217 1 Ti 0.0833048 0.750122 2.8491e-05 15.8535 -8.24382
218 1 Ti -7.19135e-17 0.749134 0.0833333 15.3528 -8.27549
219 1 Ti -3.11567e-17 0.833478 -0.000169503 14.6474 -8.22092
220 1 Ti 0.0835028 0.833478 0.0833333 14.6474 -8.22092
221 2 N -5.31703e-17 0.749886 -0.000111848 10.37 -6.5127
222 2 N 0.083191 0.833658 0.000142346 5.26107 -6.54209
223 2 N 0.0834452 0.749886 0.0833333 10.37 -6.5127
224 2 N -5.23721e-17 0.831378 0.0833333 14.5093 -6.53728
225 1 Ti 0.249964 0.750036 5.60723e-06 10.6121 -8.24826
226 1 Ti 0.166673 0.750047 0.0833333 15.8775 -8.2483
227 1 Ti 0.166562 0.833438 1.56517e-05 10.5441 -8.24766
228 1 Ti 0.249953 0.833327 0.0833333 15.8775 -8.2483
229 2 N 0.166623 0.750089 1.3428e-05 5.29051 -6.52724
230 2 N 0.249911 0.833377 1.3428e-05 5.29051 -6.52724
231 2 N 0.249961 0.750039 0.0833333 10.6129 -6.52851
232 2 N 0.166462 0.833538 0.0833333 10.5322 -6.54806
233 1 Ti 0.416655 0.750004 1.21955e-06 5.31127 -8.24838
234 1 Ti 0.333316 0.750001 0.0833333 10.6197 -8.24883
235 1 Ti 0.333292 0.833344 3.69153e-06 10.6158 -8.24771
236 1 Ti 0.416664 0.833322 0.0833333 10.6153 -8.24895
237 2 N 0.333307 0.750014 2.24205e-06 5.30806 -6.52572
238 2 N 0.416652 0.833333 -4.82463e-07 10.6223 -6.5251
239 2 N 0.41666 0.749996 0.0833333 5.31077 -6.5253
240 2 N 0.333326 0.833312 0.0833333 10.6014 -6.52412
241 1 Ti 0.5 0.749996 0.0833333 5.31136 -8.24873
242 1 Ti 0.5 0.833332 -1.76923e-07 5.31182 -8.24833
243 2 N 0.5 0.750002 2.62777e-07 5.31152 -6.52538
244 2 N 0.5 0.833322 0.0833333 5.30949 -6.5251
245 1 Ti 0.583345 0.750004 1.21955e-06 5.31127 -8.24838
246 1 Ti 0.666684 0.750001 0.0833333 10.6197 -8.24883
247 1 Ti 0.583336 0.833322 0.0833333 10.6153 -8.24895
248 1 Ti 0.666708 0.833344 3.69153e-06 10.6158 -8.24771
249 2 N 0.666693 0.750014 2.24205e-06 5.30806 -6.52572
250 2 N 0.583348 0.833333 -4.82463e-07 10.6223 -6.5251
251 2 N 0.58334 0.749996 0.0833333 5.31077 -6.5253
252 2 N 0.666674 0.833312 0.0833333 10.6014 -6.52412
253 1 Ti 0.750036 0.750036 5.60723e-06 10.6121 -8.24826
254 1 Ti 0.833327 0.750047 0.0833333 15.8775 -8.2483
255 1 Ti 0.750047 0.833327 0.0833333 15.8775 -8.2483
256 1 Ti 0.833438 0.833438 1.56517e-05 10.5441 -8.24766
257 2 N 0.833377 0.750089 1.3428e-05 5.29051 -6.52724
258 2 N 0.750089 0.833377 1.3428e-05 5.29051 -6.52724
259 2 N 0.750039 0.750039 0.0833333 10.6129 -6.52851
260 2 N 0.833538 0.833538 0.0833333 10.5322 -6.54806
261 1 Ti 0.916695 0.750122 2.8491e-05 15.8535 -8.24382
262 1 Ti 0.916497 0.833478 0.0833333 14.6474 -8.22092
263 2 N 0.916809 0.833658 0.000142346 5.26107 -6.54209
264 2 N 0.916555 0.749886 0.0833333 10.37 -6.5127
265 1 Ti 0.0830371 0.916963 0.000296205 15.9172 -8.26919
266 1 Ti -4.6689e-17 0.909183 0.0833333 10.9038 -7.25577
267 2 N -2.21321e-17 0.918165 0.00149835 5.18784 -6.66768
268 2 N 0.081835 0.918165 0.0833333 5.18784 -6.66768
269 1 Ti 0.249878 0.916695 2.8491e-05 15.8535 -8.24382
270 1 Ti 0.166522 0.916497 0.0833333 14.6474 -8.22092
271 2 N 0.166342 0.916809 0.000142346 5.26107 -6.54209
272 2 N 0.250114 0.916555 0.0833333 10.37 -6.5127
273 1 Ti 0.416659 0.916664 -2.48234e-06 1.87776e-05 -8.24833
274 1 Ti 0.333394 0.916634 0.0833333 10.5141 -8.25012
275 2 N 0.333314 0.916664 -2.49372e-06 0.000106547 -6.52356
276 2 N 0.416694 0.916646 0.0833333 10.5954 -6.52485
277 1 Ti 0.5 0.916655 0.0833333 5.30084 -8.2495
278 2 N 0.5 0.916661 -5.64684e-06 10.619 -6.5248
279 1 Ti 0.583341 0.916664 -2.48234e-06 1.87776e-05 -8.24833
280 1 Ti 0.666606 0.916634 0.0833333 10.5141 -8.25012
281 2 N 0.666686 0.916664 -2.49372e-06 0.000106547 -6.52356
282 2 N 0.583306 0.916646 0.0833333 10.5954 -6.52485
283 1 Ti 0.750122 0.916695 2.8491e-05 15.8535 -8.24382
284 1 Ti 0.833478 0.916497 0.0833333 14.6474 -8.22092
285 2 N 0.833658 0.916809 0.000142346 5.26107 -6.54209
286 2 N 0.749886 0.916555 0.0833333 10.37 -6.5127
287 1 Ti 0.916963 0.916963 0.000296205 15.9172 -8.26919
288 2 N 0.918165 0.918165 0.0833333 5.18784 -6.66768
289 1 Ti -4.41078e-17 -1.16957e-17 0.17415 10.9038 -7.25577
290 1 Ti 0.0830371 0.0830371 0.16637 15.9172 -8.26919
291 1 Ti 0.0835028 -6.62395e-17 0.249855 14.6474 -8.22092
292 1 Ti -3.85866e-17 0.0835028 0.249855 14.6474 -8.22092
293 2 N 0.081835 -4.16346e-17 0.165168 5.18784 -6.66768
294 2 N -7.09707e-17 0.081835 0.165168 5.18784 -6.66768
295 2 N -6.34165e-17 -7.71249e-17 0.251955 14.5093 -6.53728
296 2 N 0.083191 0.083191 0.249675 5.26107 -6.54209
297 1 Ti 0.166522 -4.0826e-17 0.166836 14.6474 -8.22092
298 1 Ti 0.249878 0.0833048 0.166638 15.8535 -8.24382
299 1 Ti 0.249953 -5.78729e-17 0.250006 15.8775 -8.2483
300 1 Ti 0.166562 0.0833177 0.249895 10.5441 -8.24766
301 2 N 0.250114 -1.26002e-17 0.166779 10.37 -6.5127
302 2 N 0.166342 0.083191 0.166524 5.26107 -6.54209
303 2 N 0.166462 -5.25363e-17 0.249795 10.5322 -6.54806
304 2 N 0.249911 0.0833199 0.249956 5.29051 -6.52724
305 1 Ti 0.333394 -5.98678e-17 0.1667 10.5141 -8.25012
306 1 Ti 0.416659 0.0833358 0.166669 1.87776e-05 -8.24833
307 1 Ti 0.416664 -3.29749e-17 0.250011 10.6153 -8.24895
308 1 Ti 0.333292 0.0833296 0.24999 10.6158 -8.24771
309 2 N 0.416694 -4.11526e-17 0.166687 10.5954 -6.52485
310 2 N 0.333314 0.0833358 0.166669 0.000106547 -6.52356
311 2 N 0.333326 -3.47945e-17 0.250021 10.6014 -6.52412
312 2 N 0.416652 0.0833338 0.25 10.6223 -6.5251
313 1 Ti 0.5 -4.91558e-17 0.166678 5.30084 -8.2495
314 1 Ti 0.5 0.0833335 0.250001 5.31182 -8.24833
315 2 N 0.5 0.083339 0.166672 10.619 -6.5248
316 2 N 0.5 -4.51059e-17 0.250012 5.30949 -6.5251
317 1 Ti 0.583341 0.0833358 0.166669 1.87776e-05 -8.24833
318 1 Ti 0.583336 -4.84758e-17 0.250011 10.6153 -8.24895
319 1 Ti 0.666606 -4.36113e-17 0.1667 10.5141 -8.25012
320 1 Ti 0.666708 0.0833296 0.24999 10.6158 -8.24771
321 2 N 0.583306 -5.2249e-17 0.166687 10.5954 -6.52485
322 2 N 0.666686 0.0833358 0.166669 0.000106547 -6.52356
323 2 N 0.583348 0.0833338 0.25 10.6223 -6.5251
324 2 N 0.666674 -3.52221e-17 0.250021 10.6014 -6.52412
325 1 Ti 0.750122 0.0833048 0.166638 15.8535 -8.24382
326 1 Ti 0.750047 -5.31113e-17 0.250006 15.8775 -8.2483
327 1 Ti 0.833478 -9.03794e-18 0.166836 14.6474 -8.22092
328 1 Ti 0.833438 0.0833177 0.249895 10.5441 -8.24766
329 2 N 0.749886 1.21394e-17 0.166779 10.37 -6.5127
330 2 N 0.833658 0.083191 0.166524 5.26107 -6.54209
331 2 N 0.750089 0.0833199 0.249956 5.29051 -6.52724
332 2 N 0.833538 -2.97887e-17 0.249795 10.5322 -6.54806
333 1 Ti 0.916963 0.0830371 0.16637 15.9172 -8.26919
334 1 Ti 0.916497 -3.28847e-17 0.249855 14.6474 -8.22092
335 2 N 0.918165 -2.19156e-17 0.165168 5.18784 -6.66768
336 2 N 0.916809 0.083191 0.249675 5.26107 -6.54209
337 1 Ti -4.16442e-17 0.166522 0.166836 14.6474 -8.22092
338 1 Ti 0.0833048 0.249878 0.166638 15.8535 -8.24382
339 1 Ti 0.0833177 0.166562 0.249895 10.5441 -8.24766
340 1 Ti -6.7034e-17 0.249953 0.250006 15.8775 -8.2483
341 2 N 0.083191 0.166342 0.166524 5.26107 -6.54209
342 2 N -5.16943e-17 0.250114 0.166779 10.37 -6.5127
343 2 N -5.93604e-17 0.166462 0.249795 10.5322 -6.54806
344 2 N 0.0833199 0.249911 0.249956 5.29051 -6.52724
345 1 Ti 0.166562 0.166562 0.166651 10.5441 -8.24766
346 1 Ti 0.249964 0.249964 0.166661 10.6121 -8.24826
347 1 Ti 0.249958 0.166645 0.249978 3.50686e-06 -8.24864
348 1 Ti 0.166645 0.249958 0.249978 3.50686e-06 -8.24864
349 2 N 0.249911 0.166623 0.166653 5.29051 -6.52724
350 2 N 0.166623 0.249911 0.166653 5.29051 -6.52724
351 2 N 0.166609 0.166609 0.249943 1.03013e-05 -6.52806
352 2 N 0.249977 0.249977 0.249988 4.61753e-07 -6.52571
353 1 Ti 0.333292 0.166656 0.166663 10.6158 -8.24771
354 1 Ti 0.416655 0.249996 0.166665 5.31127 -8.24838
355 1 Ti 0.416652 0.166663 0.249997 5.31226 -8.24833
356 1 Ti 0.333317 0.24999 0.249994 5.31247 -8.24853
357 2 N 0.416652 0.166667 0.166667 10.6223 -6.5251
358 2 N 0.333307 0.249986 0.166664 5.30806 -6.52572
359 2 N 0.333301 0.166656 0.249989 5.31071 -6.5259
360 2 N 0.416657 0.249994 0.249997 5.31207 -6.52555
361 1 Ti 0.5 0.166668 0.166667 5.31182 -8.24833
362 1 Ti 0.5 0.249996 0.249998 5.31242 -8.24847
363 2 N 0.5 0.249998 0.166666 5.31152 -6.52538
364 2 N 0.5 0.166665 0.249998 5.3121 -6.52542
365 1 Ti 0.583345 0.249996 0.166665 5.31127 -8.24838
366 1 Ti 0.583348 0.166663 0.249997 5.31226 -8.24833
367 1 Ti 0.666708 0.166656 0.166663 10.6158 -8.24771
368 1 Ti 0.666683 0.24999 0.249994 5.31247 -8.24853
369 2 N 0.583348 0.166667 0.166667 10.6223 -6.5251
370 2 N 0.666693 0.249986 0.166664 5.30806 -6.52572
371 2 N 0.583343 0.249994 0.249997 5.31207 -6.52555
372 2 N 0.666699 0.166656 0.249989 5.31071 -6.5259
373 1 Ti 0.750036 0.249964 0.166661 10.6121 -8.24826
374 1 Ti 0.750042 0.166645 0.249978 3.50686e-06 -8.24864
375 1 Ti 0.833438 0.166562 0.166651 10.5441 -8.24766
376 1 Ti 0.833355 0.249958 0.249978 3.50686e-06 -8.24864
377 2 N 0.750089 0.166623 0.166653 5.29051 -6.52724
378 2 N 0.833377 0.249911 0.166653 5.29051 -6.52724
379 2 N 0.750023 0.249977 0.249988 4.61753e-07 -6.52571
380 2 N 0.833391 0.166609 0.249943 1.03013e-05 -6.52806
381 1 Ti 0.916695 0.249878 0.166638 15.8535 -8.24382
382 1 Ti 0.916682 0.166562 0.249895 10.5441 -8.24766
383 2 N 0.916809 0.166342 0.166524 5.26107 -6.54209
384 2 N 0.91668 0.249911 0.249956 5.29051 -6.52724
385 1 Ti -6.36268e-17 0.333394 0.1667 10.5141 -8.25012
386 1 Ti 0.0833358 0.416659 0.166669 1.87776e-05 -8.24833
387 1 Ti 0.0833296 0.333292 0.24999 10.6158 -8.24771
388 1 Ti -2.13466e-17 0.416664 0.250011 10.6153 -8.24895
389 2 N 0.0833358 0.333314 0.166669 0.000106547 -6.52356
390 2 N -4.56379e-17 0.416694 0.166687 10.5954 -6.52485
391 2 N 4.30609e-18 0.333326 0.250021 10.6014 -6.52412
392 2 N 0.0833338 0.416652 0.25 10.6223 -6.5251
393 1 Ti 0.166656 0.333292 0.166663 10.6158 -8.24771
394 1 Ti 0.249996 0.416655 0.166665 5.31127 -8.24838
395 1 Ti 0.24999 0.333317 0.249994 5.31247 -8.24853
396 1 Ti 0.166663 0.416652 0.249997 5.31226 -8.24833
397 2 N 0.249986 0.333307 0.166664 5.30806 -6.52572
398 2 N 0.166667 0.416652 0.166667 10.6223 -6.5251
399 2 N 0.166656 0.333301 0.249989 5.31071 -6.5259
400 2 N 0.249994 0.416657 0.249997 5.31207 -6.52555
401 1 Ti 0.333322 0.333322 0.166665 10.6229 -8.2485
402 1 Ti 0.416664 0.416664 0.166666 5.31277 -8.24858
403 1 Ti 0.416662 0.333329 0.249998 5.3128 -8.24856
404 1 Ti 0.333329 0.416662 0.249998 5.3128 -8.24856
405 2 N 0.41666 0.333328 0.166666 10.6245 -6.52548
406 2 N 0.333328 0.41666 0.166666 10.6245 -6.52548
407 2 N 0.333325 0.333325 0.249997 8.25411e-08 -6.52548
408 2 N 0.416664 0.416664 0.249999 5.31288 -6.52543
409 1 Ti 0.5 0.333331 0.166666 5.31225 -8.24854
410 1 Ti 0.5 0.416665 0.249999 5.3129 -8.2486
411 2 N 0.5 0.416665 0.166666 5.31275 -6.52543
412 2 N 0.5 0.33333 0.249998 5.31266 -6.52547
413 1 Ti 0.583336 0.416664 0.166666 5.31277 -8.24858
414 1 Ti 0.583338 0.333329 0.249998 5.3128 -8.24856
415 1 Ti 0.666678 0.333322 0.166665 10.6229 -8.2485
416 1 Ti 0.666671 0.416662 0.249998 5.3128 -8.24856
417 2 N 0.58334 0.333328 0.166666 10.6245 -6.52548
418 2 N 0.666672 0.41666 0.166666 10.6245 -6.52548
419 2 N 0.583336 0.416664 0.249999 5.31288 -6.52543
420 2 N 0.666675 0.333325 0.249997 8.25411e-08 -6.52548
421 1 Ti 0.750004 0.416655 0.166665 5.31127 -8.24838
422 1 Ti 0.75001 0.333317 0.249994 5.31247 -8.24853
423 1 Ti 0.833344 0.333292 0.166663 10.6158 -8.24771
424 1 Ti 0.833337 0.416652 0.249997 5.31226 -8.24833
425 2 N 0.750014 0.333307 0.166664 5.30806 -6.52572
426 2 N 0.833333 0.416652 0.166667 10.6223 -6.5251
427 2 N 0.750006 0.416657 0.249997 5.31207 -6.52555
428 2 N 0.833344 0.333301 0.249989 5.31071 -6.5259
429 1 Ti 0.916664 0.416659 0.166669 1.87776e-05 -8.24833
430 1 Ti 0.91667 0.333292 0.24999 10.6158 -8.24771
431 2 N 0.916664 0.333314 0.166669 0.000106547 -6.52356
432 2 N 0.916666 0.416652 0.25 10.6223 -6.5251
433 1 Ti -4.76638e-17 0.5 0.166678 5.30084 -8.2495
434 1 Ti 0.0833335 0.5 0.250001 5.31182 -8.24833
435 2 N 0.083339 0.5 0.166672 10.619 -6.5248
436 2 N -2.78423e-17 0.5 0.250012 5.30949 -6.5251
437 1 Ti 0.166668 0.5 0.166667 5.31182 -8.24833
438 1 Ti 0.249996 0.5 0.249998 5.31242 -8.24847
439 2 N 0.249998 0.5 0.166666 5.31152 -6.52538
440 2 N 0.166665 0.5 0.249998 5.3121 -6.52542
441 1 Ti 0.333331 0.5 0.166666 5.31225 -8.24854
442 1 Ti 0.416665 0.5 0.249999 5.3129 -8.2486
443 2 N 0.416665 0.5 0.166666 5.31275 -6.52543
444 2 N 0.33333 0.5 0.249998 5.31266 -6.52547
445 1 Ti 0.5 0.5 0.166666 5.31293 -8.24861
446 2 N 0.5 0.5 0.249999 5.31291 -6.52541
447 1 Ti 0.583335 0.5 0.249999 5.3129 -8.2486
448 1 Ti 0.666669 0.5 0.166666 5.31225 -8.24854
449 2 N 0.583335 0.5 0.166666 5.31275 -6.52543
450 2 N 0.66667 0.5 0.249998 5.31266 -6.52547
451 1 Ti 0.750004 0.5 0.249998 5.31242 -8.24847
452 1 Ti 0.833332 0.5 0.166667 5.31182 -8.24833
453 2 N 0.750002 0.5 0.166666 5.31152 -6.52538
454 2 N 0.833335 0.5 0.249998 5.3121 -6.52542
455 1 Ti 0.916666 0.5 0.250001 5.31182 -8.24833
456 2 N 0.916661 0.5 0.166672 10.619 -6.5248
457 1 Ti 0.0833358 0.583341 0.166669 1.87776e-05 -8.24833
458 1 Ti -6.32324e-17 0.583336 0.250011 10.6153 -8.24895
459 1 Ti -5.31758e-17 0.666606 0.1667 10.5141 -8.25012
460 1 Ti 0.0833296 0.666708 0.24999 10.6158 -8.24771
461 2 N -4.15406e-17 0.583306 0.166687 10.5954 -6.52485
462 2 N 0.0833358 0.666686 0.166669 0.000106547 -6.52356
463 2 N 0.0833338 0.583348 0.25 10.6223 -6.5251
464 2 N -6.62326e-17 0.666674 0.250021 10.6014 -6.52412
465 1 Ti 0.249996 0.583345 0.166665 5.31127 -8.24838
466 1 Ti 0.166663 0.583348 0.249997 5.31226 -8.24833
467 1 Ti 0.166656 0.666708 0.166663 10.6158 -8.24771
468 1 Ti 0.24999 0.666683 0.249994 5.31247 -8.24853
469 2 N 0.166667 0.583348 0.166667 10.6223 -6.5251
470 2 N 0.249986 0.666693 0.166664 5.30806 -6.52572
471 2 N 0.249994 0.583343 0.249997 5.31207 -6.52555
472 2 N 0.166656 0.666699 0.249989 5.31071 -6.5259
473 1 Ti 0.416664 0.583336 0.166666 5.31277 -8.24858
474 1 Ti 0.333329 0.583338 0.249998 5.3128 -8.24856
475 1 Ti 0.333322 0.666678 0.166665 10.6229 -8.2485
476 1 Ti 0.416662 0.666671 0.249998 5.3128 -8.24856
477 2 N 0.333328 0.58334 0.166666 10.6245 -6.52548
478 2 N 0.41666 0.666672 0.166666 10.6245 -6.52548
479 2 N 0.416664 0.583336 0.249999 5.31288 -6.52543
480 2 N 0.333325 0.666675 0.249997 8.25411e-08 -6.52548
481 1 Ti 0.5 0.583335 0.249999 5.3129 -8.2486
482 1 Ti 0.5 0.666669 0.166666 5.31225 -8.24854
483 2 N 0.5 0.583335 0.166666 5.31275 -6.52543
484 2 N 0.5 0.66667 0.249998 5.31266 -6.52547
485 1 Ti 0.583336 0.583336 0.166666 5.31277 -8.24858
486 1 Ti 0.666671 0.583338 0.249998 5.3128 -8.24856
487 1 Ti 0.583338 0.666671 0.249998 5.3128 -8.24856
488 1 Ti 0.666678 0.666678 0.166665 10.6229 -8.2485
489 2 N 0.666672 0.58334 0.166666 10.6245 -6.52548
490 2 N 0.58334 0.666672 0.166666 10.6245 -6.52548
491 2 N 0.583336 0.583336 0.249999 5.31288 -6.52543
492 2 N 0.666675 0.666675 0.249997 8.25411e-08 -6.52548
493 1 Ti 0.750004 0.583345 0.166665 5.31127 -8.24838
494 1 Ti 0.833337 0.583348 0.249997 5.31226 -8.24833
495 1 Ti 0.75001 0.666683 0.249994 5.31247 -8.24853
496 1 Ti 0.833344 0.666708 0.166663 10.6158 -8.24771
497 2 N 0.833333 0.583348 0.166667 10.6223 -6.5251
498 2 N 0.750014 0.666693 0.166664 5.30806 -6.52572
499 2 N 0.750006 0.583343 0.249997 5.31207 -6.52555
500 2 N 0.833344 0.666699 0.249989 5.31071 -6.5259
501 1 Ti 0.916664 0.583341 0.166669 1.87776e-05 -8.24833
502 1 Ti 0.91667 0.666708 0.24999 10.6158 -8.24771
503 2 N 0.916664 0.666686 0.166669 0.000106547 -6.52356
504 2 N 0.916666 0.583348 0.25 10.6223 -6.5251
505 1 Ti 0.0833048 0.750122 0.166638 15.8535 -8.24382
506 1 Ti -3.49601e-17 0.750047 0.250006 15.8775 -8.2483
507 1 Ti -3.42432e-17 0.833478 0.166836 14.6474 -8.22092
508 1 Ti 0.0833177 0.833438 0.249895 10.5441 -8.24766
509 2 N -7.04451e-17 0.749886 0.166779 10.37 -6.5127
510 2 N 0.083191 0.833658 0.166524 5.26107 -6.54209
511 2 N 0.0833199 0.750089 0.249956 5.29051 -6.52724
512 2 N -3.83841e-17 0.833538 0.249795 10.5322 -6.54806
513 1 Ti 0.249964 0.750036 0.166661 10.6121 -8.24826
514 1 Ti 0.166645 0.750042 0.249978 3.50686e-06 -8.24864
515 1 Ti 0.166562 0.833438 0.166651 10.5441 -8.24766
516 1 Ti 0.249958 0.833355 0.249978 3.50686e-06 -8.24864
517 2 N 0.166623 0.750089 0.166653 5.29051 -6.52724
518 2 N 0.249911 0.833377 0.166653 5.29051 -6.52724
519 2 N 0.249977 0.750023 0.249988 4.61753e-07 -6.52571
520 2 N 0.166609 0.833391 0.249943 1.03013e-05 -6.52806
521 1 Ti 0.416655 0.750004 0.166665 5.31127 -8.24838
522 1 Ti 0.333317 0.75001 0.249994 5.31247 -8.24853
523 1 Ti 0.333292 0.833344 0.166663 10.6158 -8.24771
524 1 Ti 0.416652 0.833337 0.249997 5.31226 -8.24833
525 2 N 0.333307 0.750014 0.166664 5.30806 -6.52572
526 2 N 0.416652 0.833333 0.166667 10.6223 -6.5251
527 2 N 0.416657 0.750006 0.249997 5.31207 -6.52555
528 2 N 0.333301 0.833344 0.249989 5.31071 -6.5259
529 1 Ti 0.5 0.750004 0.249998 5.31242 -8.24847
530 1 Ti 0.5 0.833332 0.166667 5.31182 -8.24833
531 2 N 0.5 0.750002 0.166666 5.31152 -6.52538
532 2 N 0.5 0.833335 0.249998 5.3121 -6.52542
533 1 Ti 0.583345 0.750004 0.166665 5.31127 -8.24838
534 1 Ti 0.666683 0.75001 0.249994 5.31247 -8.24853
535 1 Ti 0.583348 0.833337 0.249997 5.31226 -8.24833
536 1 Ti 0.666708 0.833344 0.166663 10.6158 -8.24771
537 2 N 0.666693 0.750014 0.166664 5.30806 -6.52572
538 2 N 0.583348 0.833333 0.166667 10.6223 -6.5251
539 2 N 0.583343 0.750006 0.249997 5.31207 -6.52555
540 2 N 0.666699 0.833344 0.249989 5.31071 -6.5259
541 1 Ti 0.750036 0.750036 0.166661 10.6121 -8.24826
542 1 Ti 0.833355 0.750042 0.249978 3.50686e-06 -8.24864
543 1 Ti 0.750042 0.833355 0.249978 3.50686e-06 -8.24864
544 1 Ti 0.833438 0.833438 0.166651 10.5441 -8.24766
545 2 N 0.833377 0.750089 0.166653 5.29051 -6.52724
546 2 N 0.750089 0.833377 0.166653 5.29051 -6.52724
547 2 N 0.750023 0.750023 0.249988 4.61753e-07 -6.52571
548 2 N 0.833391 0.833391 0.249943 1.03013e-05 -6.52806
549 1 Ti 0.916695 0.750122 0.166638 15.8535 -8.24382
550 1 Ti 0.916682 0.833438 0.249895 10.5441 -8.24766
551 2 N 0.916809 0.833658 0.166524 5.26107 -6.54209
552 2 N 0.91668 0.750089 0.249956 5.29051 -6.52724
553 1 Ti 0.0830371 0.916963 0.16637 15.9172 -8.26919
554 1 Ti -4.80798e-17 0.916497 0.249855 14.6474 -8.22092
555 2 N -5.35118e-17 0.918165 0.165168 5.18784 -6.66768
556 2 N 0.083191 0.916809 0.249675 5.26107 -6.54209
557 1 Ti 0.249878 0.916695 0.166638 15.8535 -8.24382
558 1 Ti 0.166562 0.916682 0.249895 10.5441 -8.24766
559 2 N 0.166342 0.916809 0.166524 5.26107 -6.54209