ITEM: TIMESTEP
1
ITEM: NUMBER OF ATOMS
7
ITEM: BOX BOUNDS pp pp pp
0.0000000000000000e+00 4.6100000000000003e+00
0.0000000000000000e+00 4.6100000000000003e+00
0.0000000000000000e+00 4.6100000000000003e+00
ITEM: ATOMS id type element xs ys zs c_csym c_eng
1 1 Ti 0 0 0 5.31303 -5.82571
2 1 Ti 0.5 0.5 0 10.6261 -8.24877
3 1 Ti 0.5 0 0.5 10.6261 -5.82571
4 1 Ti 0 0.5 0.5 10.6261 -5.82571
5 2 N 0.5 0 0 0 -7.03634
6 2 N 0 0.5 0 0 -7.03634
7 2 N 0.5 0.5 0.5 5.31303 -7.03634
