ITEM: TIMESTEP
17
ITEM: NUMBER OF ATOMS
999
ITEM: BOX BOUNDS pp pp pp
0.0000000000000000e+00 2.3050000000000001e+01
0.0000000000000000e+00 2.3050000000000001e+01
0.0000000000000000e+00 2.3050000000000001e+01
ITEM: ATOMS id type element xs ys zs c_csym c_eng
1 1 Ti 3.85042e-17 2.23427e-17 -0.00897622 10.9046 -7.25581
2 1 Ti 0.0996453 0.0996453 0.000354659 10.614 -8.26916
3 1 Ti 0.108976 -7.79164e-18 0.1 10.9046 -7.25581
4 1 Ti 3.39064e-17 0.108976 0.1 10.9046 -7.25581
5 2 N 0.0982021 3.15675e-17 0.00179786 5.18774 -6.66775
6 2 N 5.78343e-17 0.0982021 0.00179786 5.18774 -6.66775
8 2 N 0.0982021 0.0982021 0.1 5.18774 -6.66775
9 1 Ti 0.199824 9.82773e-18 -0.000205085 14.6472 -8.22093
10 1 Ti 0.299854 0.0999684 3.16322e-05 15.8543 -8.2437
11 1 Ti 0.301021 2.45465e-17 0.1 10.2417 -8.27573
12 1 Ti 0.199824 0.100205 0.1 14.6472 -8.22093
13 2 N 0.30013 5.84863e-17 -0.000138448 10.3703 -6.5128
14 2 N 0.19961 0.0998314 0.000168621 5.26135 -6.54212
15 2 N 0.20234 3.81823e-17 0.1 14.5099 -6.53736
16 2 N 0.30013 0.100138 0.1 10.3703 -6.5128
17 1 Ti 0.400056 -3.50211e-18 -4.6103e-05 10.5168 -8.25033
18 1 Ti 0.400056 0.100046 0.1 10.5168 -8.25033
19 2 N 0.399976 0.100007 -6.75455e-06 0.000102062 -6.52344
20 2 N 0.400246 1.33309e-17 0.1 15.8009 -6.53313
21 1 Ti 0.5 0.100005 -4.52316e-06 10.6142 -8.24784
22 1 Ti 0.5 7.56658e-18 0.1 5.3071 -8.25472
23 1 Ti 0.599944 9.47734e-18 -4.6103e-05 10.5168 -8.25033
24 1 Ti 0.599944 0.100046 0.1 10.5168 -8.25033
25 2 N 0.5 -1.51851e-17 -4.21042e-05 5.28704 -6.52454
26 2 N 0.600024 0.100007 -6.75455e-06 0.000102062 -6.52344
27 2 N 0.5 0.100042 0.1 5.28704 -6.52454
28 2 N 0.599754 -9.98009e-18 0.1 15.8009 -6.53313
29 1 Ti 0.700146 0.0999684 3.16322e-05 15.8543 -8.2437
30 1 Ti 0.698979 1.80737e-17 0.1 15.3564 -8.27573
31 1 Ti 0.800176 -5.41644e-18 -0.000205085 14.6472 -8.22093
32 1 Ti 0.800176 0.100205 0.1 14.6472 -8.22093
33 2 N 0.69987 -1.30077e-17 -0.000138448 10.3703 -6.5128
34 2 N 0.80039 0.0998314 0.000168621 5.26135 -6.54212
35 2 N 0.69987 0.100138 0.1 10.3703 -6.5128
36 2 N 0.79766 3.89498e-17 0.1 14.5099 -6.53736
37 1 Ti 0.900355 0.0996453 0.000354659 15.9169 -8.26916
38 1 Ti 0.891024 3.95876e-17 0.1 10.9046 -7.25581
39 2 N 0.901798 3.28467e-17 0.00179786 5.18774 -6.66775
40 2 N 0.901798 0.0982021 0.1 5.18774 -6.66775
41 1 Ti 2.63314e-17 0.199824 -0.000205085 14.6472 -8.22093
42 1 Ti 0.0999684 0.299854 3.16322e-05 15.8543 -8.2437
43 1 Ti 0.100205 0.199824 0.1 14.6472 -8.22093
44 1 Ti -1.22338e-17 0.301021 0.1 15.3564 -8.27573
45 2 N 0.0998314 0.19961 0.000168621 5.26135 -6.54212
46 2 N -7.57482e-18 0.30013 -0.000138448 10.3703 -6.5128
47 2 N 1.98841e-17 0.20234 0.1 14.5099 -6.53736
48 2 N 0.100138 0.30013 0.1 10.3703 -6.5128
49 1 Ti 0.199877 0.199877 1.67098e-05 10.5443 -8.2475
50 1 Ti 0.299962 0.299962 5.41551e-06 10.6124 -8.24806
51 1 Ti 0.299945 0.200012 0.1 15.878 -8.24823
52 1 Ti 0.200012 0.299945 0.1 15.878 -8.24823
53 2 N 0.299897 0.199952 1.39516e-05 5.29052 -6.5273
54 2 N 0.199952 0.299897 1.39516e-05 5.29052 -6.5273
55 2 N 0.199757 0.199757 0.1 10.5328 -6.54812
56 2 N 0.299958 0.299958 0.1 10.613 -6.52861
57 1 Ti 0.399959 0.199991 3.14556e-06 5.30734 -8.24745
58 1 Ti 0.399985 0.300004 0.1 3.93136e-06 -8.24878
59 2 N 0.399977 0.299986 1.66782e-06 5.30768 -6.52586
60 2 N 0.399992 0.200033 0.1 5.29901 -6.52413
61 1 Ti 0.5 0.299994 1.61975e-06 5.31017 -8.24811
62 1 Ti 0.5 0.200023 0.1 5.30711 -8.24903
63 1 Ti 0.600041 0.199991 3.14556e-06 5.30734 -8.24745
64 1 Ti 0.600015 0.300004 0.1 3.93136e-06 -8.24878
65 2 N 0.5 0.2 -1.26684e-06 10.6197 -6.52507
66 2 N 0.600023 0.299986 1.66782e-06 5.30768 -6.52586
67 2 N 0.5 0.300009 0.1 5.30995 -6.52538
68 2 N 0.600008 0.200033 0.1 5.29901 -6.52413
69 1 Ti 0.700038 0.299962 5.41551e-06 10.6124 -8.24806
70 1 Ti 0.700055 0.200012 0.1 15.878 -8.24823
71 1 Ti 0.800123 0.199877 1.67098e-05 10.5443 -8.2475
72 1 Ti 0.799988 0.299945 0.1 15.878 -8.24823
73 2 N 0.700103 0.199952 1.39516e-05 5.29052 -6.5273
74 2 N 0.800048 0.299897 1.39516e-05 5.29052 -6.5273
75 2 N 0.700042 0.299958 0.1 10.613 -6.52861
76 2 N 0.800243 0.199757 0.1 10.5328 -6.54812
77 1 Ti 0.900032 0.299854 3.16322e-05 15.8543 -8.2437
78 1 Ti 0.899795 0.199824 0.1 14.6472 -8.22093
79 2 N 0.900169 0.19961 0.000168621 5.26135 -6.54212
80 2 N 0.899862 0.30013 0.1 10.3703 -6.5128
81 1 Ti -1.13026e-17 0.400056 -4.6103e-05 10.5168 -8.25033
82 1 Ti 0.100046 0.400056 0.1 10.5168 -8.25033
83 2 N 0.100007 0.399976 -6.75455e-06 0.000102062 -6.52344
84 2 N -1.64736e-17 0.400246 0.1 15.8009 -6.53313
85 1 Ti 0.199991 0.399959 3.14556e-06 5.30734 -8.24745
86 1 Ti 0.300004 0.399985 0.1 3.93136e-06 -8.24878
87 2 N 0.299986 0.399977 1.66782e-06 5.30768 -6.52586
88 2 N 0.200033 0.399992 0.1 5.29901 -6.52413
89 1 Ti 0.399992 0.399992 1.02517e-06 10.623 -8.24833
90 2 N 0.399994 0.399994 0.1 10.6247 -6.52607
91 1 Ti 0.5 0.400001 0.1 5.31216 -8.24872
92 1 Ti 0.600008 0.399992 1.02517e-06 10.623 -8.24833
93 2 N 0.5 0.399995 3.19397e-07 5.31144 -6.5257
94 2 N 0.600006 0.399994 0.1 10.6247 -6.52607
95 1 Ti 0.699996 0.399985 0.1 3.93136e-06 -8.24878
96 1 Ti 0.800009 0.399959 3.14556e-06 5.30734 -8.24745
97 2 N 0.700014 0.399977 1.66782e-06 5.30768 -6.52586
98 2 N 0.799967 0.399992 0.1 5.29901 -6.52413
99 1 Ti 0.899954 0.400056 0.1 10.5168 -8.25033
100 2 N 0.899993 0.399976 -6.75455e-06 0.000102062 -6.52344
101 1 Ti 0.100005 0.5 -4.52316e-06 10.6142 -8.24784
102 1 Ti 2.19448e-17 0.5 0.1 5.3071 -8.25472
103 1 Ti -6.80148e-18 0.599944 -4.6103e-05 10.5168 -8.25033
104 1 Ti 0.100046 0.599944 0.1 10.5168 -8.25033
105 2 N -1.58506e-17 0.5 -4.21042e-05 5.28704 -6.52454
106 2 N 0.100007 0.600024 -6.75455e-06 0.000102062 -6.52344
107 2 N 0.100042 0.5 0.1 5.28704 -6.52454
108 2 N 1.55494e-17 0.599754 0.1 15.8009 -6.53313
109 1 Ti 0.299994 0.5 1.61975e-06 5.31017 -8.24811
110 1 Ti 0.200023 0.5 0.1 5.30711 -8.24903
111 1 Ti 0.199991 0.600041 3.14556e-06 5.30734 -8.24745
112 1 Ti 0.300004 0.600015 0.1 3.93136e-06 -8.24878
113 2 N 0.2 0.5 -1.26684e-06 10.6197 -6.52507
114 2 N 0.299986 0.600023 1.66782e-06 5.30768 -6.52586
115 2 N 0.300009 0.5 0.1 5.30995 -6.52538
116 2 N 0.200033 0.600008 0.1 5.29901 -6.52413
117 1 Ti 0.400001 0.5 0.1 5.31216 -8.24872
118 1 Ti 0.399992 0.600008 1.02517e-06 10.623 -8.24833
119 2 N 0.399995 0.5 3.19397e-07 5.31144 -6.5257
120 2 N 0.399994 0.600006 0.1 10.6247 -6.52607
121 1 Ti 0.5 0.5 5.1716e-07 5.31282 -8.24842
122 1 Ti 0.599999 0.5 0.1 5.31216 -8.24872
123 1 Ti 0.5 0.599999 0.1 5.31216 -8.24872
124 1 Ti 0.600008 0.600008 1.02517e-06 10.623 -8.24833
125 2 N 0.600005 0.5 3.19397e-07 5.31144 -6.5257
126 2 N 0.5 0.600005 3.19397e-07 5.31144 -6.5257
127 2 N 0.5 0.5 0.1 5.31299 -6.52586
128 2 N 0.600006 0.600006 0.1 10.6247 -6.52607
129 1 Ti 0.700006 0.5 1.61975e-06 5.31017 -8.24811
130 1 Ti 0.799977 0.5 0.1 5.30711 -8.24903
131 1 Ti 0.699996 0.600015 0.1 3.93136e-06 -8.24878
132 1 Ti 0.800009 0.600041 3.14556e-06 5.30734 -8.24745
133 2 N 0.8 0.5 -1.26684e-06 10.6197 -6.52507
134 2 N 0.700014 0.600023 1.66782e-06 5.30768 -6.52586
135 2 N 0.699991 0.5 0.1 5.30995 -6.52538
136 2 N 0.799967 0.600008 0.1 5.29901 -6.52413
137 1 Ti 0.899995 0.5 -4.52316e-06 10.6142 -8.24784
138 1 Ti 0.899954 0.599944 0.1 10.5168 -8.25033
139 2 N 0.899993 0.600024 -6.75455e-06 0.000102062 -6.52344
140 2 N 0.899958 0.5 0.1 5.28704 -6.52454
141 1 Ti 0.0999684 0.700146 3.16322e-05 15.8543 -8.2437
142 1 Ti 2.65687e-17 0.698979 0.1 15.3564 -8.27573
143 1 Ti -1.8869e-17 0.800176 -0.000205085 14.6472 -8.22093
144 1 Ti 0.100205 0.800176 0.1 14.6472 -8.22093
145 2 N -7.93138e-18 0.69987 -0.000138448 10.3703 -6.5128
146 2 N 0.0998314 0.80039 0.000168621 5.26135 -6.54212
147 2 N 0.100138 0.69987 0.1 10.3703 -6.5128
148 2 N 1.89694e-18 0.79766 0.1 14.5099 -6.53736
149 1 Ti 0.299962 0.700038 5.41551e-06 10.6124 -8.24806
150 1 Ti 0.200012 0.700055 0.1 15.878 -8.24823
151 1 Ti 0.199877 0.800123 1.67098e-05 10.5443 -8.2475
152 1 Ti 0.299945 0.799988 0.1 15.878 -8.24823
153 2 N 0.199952 0.700103 1.39516e-05 5.29052 -6.5273
154 2 N 0.299897 0.800048 1.39516e-05 5.29052 -6.5273
155 2 N 0.299958 0.700042 0.1 10.613 -6.52861
156 2 N 0.199757 0.800243 0.1 10.5328 -6.54812
157 1 Ti 0.399985 0.699996 0.1 3.93136e-06 -8.24878
158 1 Ti 0.399959 0.800009 3.14556e-06 5.30734 -8.24745
159 2 N 0.399977 0.700014 1.66782e-06 5.30768 -6.52586
160 2 N 0.399992 0.799967 0.1 5.29901 -6.52413
161 1 Ti 0.5 0.700006 1.61975e-06 5.31017 -8.24811
162 1 Ti 0.600015 0.699996 0.1 3.93136e-06 -8.24878
163 1 Ti 0.5 0.799977 0.1 5.30711 -8.24903
164 1 Ti 0.600041 0.800009 3.14556e-06 5.30734 -8.24745
165 2 N 0.600023 0.700014 1.66782e-06 5.30768 -6.52586
166 2 N 0.5 0.8 -1.26684e-06 10.6197 -6.52507
167 2 N 0.5 0.699991 0.1 5.30995 -6.52538
168 2 N 0.600008 0.799967 0.1 5.29901 -6.52413
169 1 Ti 0.700038 0.700038 5.41551e-06 10.6124 -8.24806
170 1 Ti 0.799988 0.700055 0.1 15.878 -8.24823
171 1 Ti 0.700055 0.799988 0.1 15.878 -8.24823
172 1 Ti 0.800123 0.800123 1.67098e-05 10.5443 -8.2475
173 2 N 0.800048 0.700103 1.39516e-05 5.29052 -6.5273
174 2 N 0.700103 0.800048 1.39516e-05 5.29052 -6.5273
175 2 N 0.700042 0.700042 0.1 10.613 -6.52861
176 2 N 0.800243 0.800243 0.1 10.5328 -6.54812
177 1 Ti 0.900032 0.700146 3.16322e-05 15.8543 -8.2437
178 1 Ti 0.899795 0.800176 0.1 14.6472 -8.22093
179 2 N 0.900169 0.80039 0.000168621 5.26135 -6.54212
180 2 N 0.899862 0.69987 0.1 10.3703 -6.5128
181 1 Ti 0.0996453 0.900355 0.000354659 15.9169 -8.26916
182 1 Ti 5.57039e-17 0.891024 0.1 10.9046 -7.25581
183 2 N 1.70756e-17 0.901798 0.00179786 5.18774 -6.66775
184 2 N 0.0982021 0.901798 0.1 5.18774 -6.66775
185 1 Ti 0.299854 0.900032 3.16322e-05 15.8543 -8.2437
186 1 Ti 0.199824 0.899795 0.1 14.6472 -8.22093
187 2 N 0.19961 0.900169 0.000168621 5.26135 -6.54212
188 2 N 0.30013 0.899862 0.1 10.3703 -6.5128
189 1 Ti 0.400056 0.899954 0.1 10.5168 -8.25033
190 2 N 0.399976 0.899993 -6.75455e-06 0.000102062 -6.52344
191 1 Ti 0.5 0.899995 -4.52316e-06 10.6142 -8.24784
192 1 Ti 0.599944 0.899954 0.1 10.5168 -8.25033
193 2 N 0.600024 0.899993 -6.75455e-06 0.000102062 -6.52344
194 2 N 0.5 0.899958 0.1 5.28704 -6.52454
195 1 Ti 0.700146 0.900032 3.16322e-05 15.8543 -8.2437
196 1 Ti 0.800176 0.899795 0.1 14.6472 -8.22093
197 2 N 0.80039 0.900169 0.000168621 5.26135 -6.54212
198 2 N 0.69987 0.899862 0.1 10.3703 -6.5128
199 1 Ti 0.900355 0.900355 0.000354659 10.614 -8.26916
200 2 N 0.901798 0.901798 0.1 5.18774 -6.66775
201 1 Ti 3.52249e-17 3.82506e-17 0.208976 10.9046 -7.25581
202 1 Ti 0.0996453 0.0996453 0.199645 10.614 -8.26916
203 1 Ti 0.100205 1.17143e-17 0.299824 14.6472 -8.22093
204 1 Ti 9.67438e-18 0.100205 0.299824 14.6472 -8.22093
205 2 N 0.0982021 1.95129e-17 0.198202 5.18774 -6.66775
206 2 N -4.99633e-17 0.0982021 0.198202 5.18774 -6.66775
207 2 N 4.54599e-17 7.2856e-18 0.30234 14.5099 -6.53736
208 2 N 0.0998314 0.0998314 0.29961 5.26135 -6.54212
209 1 Ti 0.199824 2.64708e-17 0.200205 14.6472 -8.22093
210 1 Ti 0.299854 0.0999684 0.199968 15.8543 -8.2437
211 1 Ti 0.299945 7.90423e-18 0.300012 15.878 -8.24823
212 1 Ti 0.199877 0.0999833 0.299877 10.5443 -8.2475
213 2 N 0.30013 3.30235e-18 0.200138 10.3703 -6.5128
214 2 N 0.19961 0.0998314 0.199831 5.26135 -6.54212
215 2 N 0.199757 1.71425e-17 0.299757 10.5328 -6.54812
216 2 N 0.299897 0.099986 0.299952 5.29052 -6.5273
217 1 Ti 0.400056 1.78462e-17 0.200046 10.5168 -8.25033
218 1 Ti 0.399959 0.0999969 0.299991 5.30734 -8.24745
219 2 N 0.399976 0.100007 0.200007 0.000102062 -6.52344
220 2 N 0.399992 -1.68189e-17 0.300033 5.29901 -6.52413
221 1 Ti 0.5 0.100005 0.200005 10.6142 -8.24784
222 1 Ti 0.5 3.08855e-17 0.300023 5.30711 -8.24903
223 1 Ti 0.599944 1.50695e-17 0.200046 10.5168 -8.25033
224 1 Ti 0.600041 0.0999969 0.299991 5.30734 -8.24745
225 2 N 0.5 -7.57544e-17 0.200042 5.28704 -6.52454
226 2 N 0.600024 0.100007 0.200007 0.000102062 -6.52344
227 2 N 0.5 0.100001 0.3 10.6197 -6.52507
228 2 N 0.600008 -1.0108e-17 0.300033 5.29901 -6.52413
229 1 Ti 0.700146 0.0999684 0.199968 15.8543 -8.2437
230 1 Ti 0.700055 -5.05145e-18 0.300012 15.878 -8.24823
231 1 Ti 0.800176 2.30703e-17 0.200205 14.6472 -8.22093
232 1 Ti 0.800123 0.0999833 0.299877 10.5443 -8.2475
233 2 N 0.69987 1.66785e-17 0.200138 10.3703 -6.5128
234 2 N 0.80039 0.0998314 0.199831 5.26135 -6.54212
235 2 N 0.700103 0.099986 0.299952 5.29052 -6.5273
236 2 N 0.800243 -3.72568e-17 0.299757 10.5328 -6.54812
237 1 Ti 0.900355 0.0996453 0.199645 10.614 -8.26916
238 1 Ti 0.899795 -1.30823e-17 0.299824 14.6472 -8.22093
239 2 N 0.901798 2.14769e-17 0.198202 5.18774 -6.66775
240 2 N 0.900169 0.0998314 0.29961 5.26135 -6.54212
241 1 Ti 1.25745e-17 0.199824 0.200205 14.6472 -8.22093
242 1 Ti 0.0999684 0.299854 0.199968 15.8543 -8.2437
243 1 Ti 0.0999833 0.199877 0.299877 10.5443 -8.2475
244 1 Ti 2.63913e-18 0.299945 0.300012 15.878 -8.24823
245 2 N 0.0998314 0.19961 0.199831 5.26135 -6.54212
246 2 N -1.33936e-17 0.30013 0.200138 10.3703 -6.5128
247 2 N -7.89402e-18 0.199757 0.299757 10.5328 -6.54812
248 2 N 0.099986 0.299897 0.299952 5.29052 -6.5273
249 1 Ti 0.199877 0.199877 0.199983 10.5443 -8.2475
250 1 Ti 0.299962 0.299962 0.199995 10.6124 -8.24806
251 1 Ti 0.299955 0.199977 0.299977 3.77185e-06 -8.24843
252 1 Ti 0.199977 0.299955 0.299977 3.77185e-06 -8.24843
253 2 N 0.299897 0.199952 0.199986 5.29052 -6.5273
254 2 N 0.199952 0.299897 0.199986 5.29052 -6.5273
255 2 N 0.199935 0.199935 0.299935 1.05508e-05 -6.52816
256 2 N 0.299977 0.299977 0.299988 5.22286e-07 -6.52588
257 1 Ti 0.399959 0.199991 0.199997 5.30734 -8.24745
258 1 Ti 0.399988 0.29999 0.299994 5.3125 -8.24835
259 2 N 0.399977 0.299986 0.199998 5.30768 -6.52586
260 2 N 0.399972 0.199989 0.299989 5.31053 -6.52606
261 1 Ti 0.5 0.299994 0.199998 5.31017 -8.24811
262 1 Ti 0.5 0.199995 0.299995 5.31188 -8.24806
263 1 Ti 0.600041 0.199991 0.199997 5.30734 -8.24745
264 1 Ti 0.600012 0.29999 0.299994 5.3125 -8.24835
265 2 N 0.5 0.2 0.200001 10.6197 -6.52507
266 2 N 0.600023 0.299986 0.199998 5.30768 -6.52586
267 2 N 0.5 0.299992 0.299995 5.31181 -6.5258
268 2 N 0.600028 0.199989 0.299989 5.31053 -6.52606
269 1 Ti 0.700038 0.299962 0.199995 10.6124 -8.24806
270 1 Ti 0.700045 0.199977 0.299977 3.77185e-06 -8.24843
271 1 Ti 0.800123 0.199877 0.199983 10.5443 -8.2475
272 1 Ti 0.800023 0.299955 0.299977 3.77185e-06 -8.24843
273 2 N 0.700103 0.199952 0.199986 5.29052 -6.5273
274 2 N 0.800048 0.299897 0.199986 5.29052 -6.5273
275 2 N 0.700023 0.299977 0.299988 5.22286e-07 -6.52588
276 2 N 0.800065 0.199935 0.299935 1.05508e-05 -6.52816
277 1 Ti 0.900032 0.299854 0.199968 15.8543 -8.2437
278 1 Ti 0.900017 0.199877 0.299877 10.5443 -8.2475
279 2 N 0.900169 0.19961 0.199831 5.26135 -6.54212
280 2 N 0.900014 0.299897 0.299952 5.29052 -6.5273
281 1 Ti 1.36171e-17 0.400056 0.200046 10.5168 -8.25033
282 1 Ti 0.0999969 0.399959 0.299991 5.30734 -8.24745
283 2 N 0.100007 0.399976 0.200007 0.000102062 -6.52344
284 2 N 7.19854e-18 0.399992 0.300033 5.29901 -6.52413
285 1 Ti 0.199991 0.399959 0.199997 5.30734 -8.24745
286 1 Ti 0.29999 0.399988 0.299994 5.3125 -8.24835
287 2 N 0.299986 0.399977 0.199998 5.30768 -6.52586
288 2 N 0.199989 0.399972 0.299989 5.31053 -6.52606
289 1 Ti 0.399992 0.399992 0.199999 10.623 -8.24833
290 2 N 0.399993 0.399993 0.299996 5.3127 -6.52567
291 1 Ti 0.5 0.399995 0.299997 5.31277 -8.24844
292 1 Ti 0.600008 0.399992 0.199999 10.623 -8.24833
293 2 N 0.5 0.399995 0.2 5.31144 -6.5257
294 2 N 0.600007 0.399993 0.299996 5.3127 -6.52567
295 1 Ti 0.70001 0.399988 0.299994 5.3125 -8.24835
296 1 Ti 0.800009 0.399959 0.199997 5.30734 -8.24745
297 2 N 0.700014 0.399977 0.199998 5.30768 -6.52586
298 2 N 0.800011 0.399972 0.299989 5.31053 -6.52606
299 1 Ti 0.900003 0.399959 0.299991 5.30734 -8.24745
300 2 N 0.899993 0.399976 0.200007 0.000102062 -6.52344
301 1 Ti 0.100005 0.5 0.200005 10.6142 -8.24784
302 1 Ti 3.49739e-17 0.5 0.300023 5.30711 -8.24903
303 1 Ti 9.72841e-18 0.599944 0.200046 10.5168 -8.25033
304 1 Ti 0.0999969 0.600041 0.299991 5.30734 -8.24745
305 2 N 1.73167e-18 0.5 0.200042 5.28704 -6.52454
306 2 N 0.100007 0.600024 0.200007 0.000102062 -6.52344
307 2 N 0.100001 0.5 0.3 10.6197 -6.52507
308 2 N 1.45998e-17 0.600008 0.300033 5.29901 -6.52413
309 1 Ti 0.299994 0.5 0.199998 5.31017 -8.24811
310 1 Ti 0.199995 0.5 0.299995 5.31188 -8.24806
311 1 Ti 0.199991 0.600041 0.199997 5.30734 -8.24745
312 1 Ti 0.29999 0.600012 0.299994 5.3125 -8.24835
313 2 N 0.2 0.5 0.200001 10.6197 -6.52507
314 2 N 0.299986 0.600023 0.199998 5.30768 -6.52586
315 2 N 0.299992 0.5 0.299995 5.31181 -6.5258
316 2 N 0.199989 0.600028 0.299989 5.31053 -6.52606
317 1 Ti 0.399995 0.5 0.299997 5.31277 -8.24844
318 1 Ti 0.399992 0.600008 0.199999 10.623 -8.24833
319 2 N 0.399995 0.5 0.2 5.31144 -6.5257
320 2 N 0.399993 0.600007 0.299996 5.3127 -6.52567
321 1 Ti 0.5 0.5 0.199999 5.31282 -8.24842
322 1 Ti 0.600005 0.5 0.299997 5.31277 -8.24844
323 1 Ti 0.5 0.600005 0.299997 5.31277 -8.24844
324 1 Ti 0.600008 0.600008 0.199999 10.623 -8.24833
325 2 N 0.600005 0.5 0.2 5.31144 -6.5257
326 2 N 0.5 0.600005 0.2 5.31144 -6.5257
327 2 N 0.5 0.5 0.299998 5.31284 -6.5256
328 2 N 0.600007 0.600007 0.299996 5.3127 -6.52567
329 1 Ti 0.700006 0.5 0.199998 5.31017 -8.24811
330 1 Ti 0.800005 0.5 0.299995 5.31188 -8.24806
331 1 Ti 0.70001 0.600012 0.299994 5.3125 -8.24835
332 1 Ti 0.800009 0.600041 0.199997 5.30734 -8.24745
333 2 N 0.8 0.5 0.200001 10.6197 -6.52507
334 2 N 0.700014 0.600023 0.199998 5.30768 -6.52586
335 2 N 0.700008 0.5 0.299995 5.31181 -6.5258
336 2 N 0.800011 0.600028 0.299989 5.31053 -6.52606
337 1 Ti 0.899995 0.5 0.200005 10.6142 -8.24784
338 1 Ti 0.900003 0.600041 0.299991 5.30734 -8.24745
339 2 N 0.899993 0.600024 0.200007 0.000102062 -6.52344
340 2 N 0.899999 0.5 0.3 10.6197 -6.52507
341 1 Ti 0.0999684 0.700146 0.199968 15.8543 -8.2437
342 1 Ti 3.90907e-18 0.700055 0.300012 15.878 -8.24823
343 1 Ti 1.00096e-17 0.800176 0.200205 14.6472 -8.22093
344 1 Ti 0.0999833 0.800123 0.299877 10.5443 -8.2475
345 2 N 9.01782e-18 0.69987 0.200138 10.3703 -6.5128
346 2 N 0.0998314 0.80039 0.199831 5.26135 -6.54212
347 2 N 0.099986 0.700103 0.299952 5.29052 -6.5273
348 2 N -4.0564e-17 0.800243 0.299757 10.5328 -6.54812
349 1 Ti 0.299962 0.700038 0.199995 10.6124 -8.24806
350 1 Ti 0.199977 0.700045 0.299977 3.77185e-06 -8.24843
351 1 Ti 0.199877 0.800123 0.199983 10.5443 -8.2475
352 1 Ti 0.299955 0.800023 0.299977 3.77185e-06 -8.24843
353 2 N 0.199952 0.700103 0.199986 5.29052 -6.5273
354 2 N 0.299897 0.800048 0.199986 5.29052 -6.5273
355 2 N 0.299977 0.700023 0.299988 5.22286e-07 -6.52588
356 2 N 0.199935 0.800065 0.299935 1.05508e-05 -6.52816
357 1 Ti 0.399988 0.70001 0.299994 5.3125 -8.24835
358 1 Ti 0.399959 0.800009 0.199997 5.30734 -8.24745
359 2 N 0.399977 0.700014 0.199998 5.30768 -6.52586
360 2 N 0.399972 0.800011 0.299989 5.31053 -6.52606
361 1 Ti 0.5 0.700006 0.199998 5.31017 -8.24811
362 1 Ti 0.600012 0.70001 0.299994 5.3125 -8.24835
363 1 Ti 0.5 0.800005 0.299995 5.31188 -8.24806
364 1 Ti 0.600041 0.800009 0.199997 5.30734 -8.24745
365 2 N 0.600023 0.700014 0.199998 5.30768 -6.52586
366 2 N 0.5 0.8 0.200001 10.6197 -6.52507
367 2 N 0.5 0.700008 0.299995 5.31181 -6.5258
368 2 N 0.600028 0.800011 0.299989 5.31053 -6.52606
369 1 Ti 0.700038 0.700038 0.199995 10.6124 -8.24806
370 1 Ti 0.800023 0.700045 0.299977 3.77185e-06 -8.24843
371 1 Ti 0.700045 0.800023 0.299977 3.77185e-06 -8.24843
372 1 Ti 0.800123 0.800123 0.199983 10.5443 -8.2475
373 2 N 0.800048 0.700103 0.199986 5.29052 -6.5273
374 2 N 0.700103 0.800048 0.199986 5.29052 -6.5273
375 2 N 0.700023 0.700023 0.299988 5.22286e-07 -6.52588
376 2 N 0.800065 0.800065 0.299935 1.05508e-05 -6.52816
377 1 Ti 0.900032 0.700146 0.199968 15.8543 -8.2437
378 1 Ti 0.900017 0.800123 0.299877 10.5443 -8.2475
379 2 N 0.900169 0.80039 0.199831 5.26135 -6.54212
380 2 N 0.900014 0.700103 0.299952 5.29052 -6.5273
381 1 Ti 0.0996453 0.900355 0.199645 15.9169 -8.26916
382 1 Ti 1.50892e-17 0.899795 0.299824 14.6472 -8.22093
383 2 N 4.19389e-17 0.901798 0.198202 5.18774 -6.66775
384 2 N 0.0998314 0.900169 0.29961 5.26135 -6.54212
385 1 Ti 0.299854 0.900032 0.199968 15.8543 -8.2437
386 1 Ti 0.199877 0.900017 0.299877 10.5443 -8.2475
387 2 N 0.19961 0.900169 0.199831 5.26135 -6.54212
388 2 N 0.299897 0.900014 0.299952 5.29052 -6.5273
389 1 Ti 0.399959 0.900003 0.299991 5.30734 -8.24745
390 2 N 0.399976 0.899993 0.200007 0.000102062 -6.52344
391 1 Ti 0.5 0.899995 0.200005 10.6142 -8.24784
392 1 Ti 0.600041 0.900003 0.299991 5.30734 -8.24745
393 2 N 0.600024 0.899993 0.200007 0.000102062 -6.52344
394 2 N 0.5 0.899999 0.3 10.6197 -6.52507
395 1 Ti 0.700146 0.900032 0.199968 15.8543 -8.2437
396 1 Ti 0.800123 0.900017 0.299877 10.5443 -8.2475
397 2 N 0.80039 0.900169 0.199831 5.26135 -6.54212
398 2 N 0.700103 0.900014 0.299952 5.29052 -6.5273
399 1 Ti 0.900355 0.900355 0.199645 15.9169 -8.26916
400 2 N 0.900169 0.900169 0.29961 5.26135 -6.54212
401 1 Ti 5.51445e-18 2.79648e-17 0.401021 10.2417 -8.27573
402 1 Ti 0.0999684 0.0999684 0.399854 15.8543 -8.2437
403 2 N 0.100138 1.73205e-17 0.40013 10.3703 -6.5128
404 2 N 7.55521e-18 0.100138 0.40013 10.3703 -6.5128
405 1 Ti 0.200012 4.27262e-17 0.399945 15.878 -8.24823
406 1 Ti 0.299962 0.0999946 0.399962 10.6124 -8.24806
407 2 N 0.299958 3.01013e-17 0.399958 10.613 -6.52861
408 2 N 0.199952 0.099986 0.399897 5.29052 -6.5273
409 1 Ti 0.399985 1.76806e-17 0.400004 3.93136e-06 -8.24878
410 2 N 0.399977 0.0999983 0.399986 5.30768 -6.52586
411 1 Ti 0.5 0.0999984 0.399994 5.31017 -8.24811
412 1 Ti 0.600015 2.24242e-17 0.400004 3.93136e-06 -8.24878
413 2 N 0.5 2.24434e-17 0.400009 5.30995 -6.52538
414 2 N 0.600023 0.0999983 0.399986 5.30768 -6.52586
415 1 Ti 0.700038 0.0999946 0.399962 10.6124 -8.24806
416 1 Ti 0.799988 -3.2463e-17 0.399945 15.878 -8.24823
417 2 N 0.700042 -8.21074e-18 0.399958 10.613 -6.52861
418 2 N 0.800048 0.099986 0.399897 5.29052 -6.5273
419 1 Ti 0.900032 0.0999684 0.399854 15.8543 -8.2437
420 2 N 0.899862 2.28276e-17 0.40013 10.3703 -6.5128
421 1 Ti -6.54185e-18 0.200012 0.399945 15.878 -8.24823
422 1 Ti 0.0999946 0.299962 0.399962 10.6124 -8.24806
423 2 N 0.099986 0.199952 0.399897 5.29052 -6.5273
424 2 N 3.56174e-18 0.299958 0.399958 10.613 -6.52861
425 1 Ti 0.199977 0.199977 0.399955 3.77185e-06 -8.24843
426 1 Ti 0.299989 0.299989 0.399989 2.57125e-07 -8.24848
427 2 N 0.299977 0.199988 0.399977 5.22286e-07 -6.52588
428 2 N 0.199988 0.299977 0.399977 5.22286e-07 -6.52588
429 1 Ti 0.399988 0.199994 0.39999 5.3125 -8.24835
430 2 N 0.399993 0.299993 0.399993 1.06517e-07 -6.52567
431 1 Ti 0.5 0.299995 0.399995 10.6258 -8.24845
432 1 Ti 0.600012 0.199994 0.39999 5.3125 -8.24835
433 2 N 0.5 0.199995 0.399992 5.31181 -6.5258
434 2 N 0.600007 0.299993 0.399993 1.06517e-07 -6.52567
435 1 Ti 0.700011 0.299989 0.399989 2.57125e-07 -8.24848
436 1 Ti 0.800023 0.199977 0.399955 3.77185e-06 -8.24843
437 2 N 0.700023 0.199988 0.399977 5.22286e-07 -6.52588
438 2 N 0.800012 0.299977 0.399977 5.22286e-07 -6.52588
439 1 Ti 0.900005 0.299962 0.399962 10.6124 -8.24806
440 2 N 0.900014 0.199952 0.399897 5.29052 -6.5273
441 1 Ti 2.08007e-17 0.399985 0.400004 3.93136e-06 -8.24878
442 2 N 0.0999983 0.399977 0.399986 5.30768 -6.52586
443 1 Ti 0.199994 0.399988 0.39999 5.3125 -8.24835
444 2 N 0.299993 0.399993 0.399993 1.06517e-07 -6.52567
445 1 Ti 0.399996 0.399996 0.399996 4.84158e-08 -8.24849
446 1 Ti 0.600004 0.399996 0.399996 4.84158e-08 -8.24849
447 2 N 0.5 0.399997 0.399996 5.31304 -6.52558
448 1 Ti 0.800006 0.399988 0.39999 5.3125 -8.24835
449 2 N 0.700007 0.399993 0.399993 1.06517e-07 -6.52567
450 2 N 0.900002 0.399977 0.399986 5.30768 -6.52586
451 1 Ti 0.0999984 0.5 0.399994 5.31017 -8.24811
452 1 Ti 3.17127e-17 0.600015 0.400004 3.93136e-06 -8.24878
453 2 N 2.73182e-17 0.5 0.400009 5.30995 -6.52538
454 2 N 0.0999983 0.600023 0.399986 5.30768 -6.52586
455 1 Ti 0.299995 0.5 0.399995 10.6258 -8.24845
456 1 Ti 0.199994 0.600012 0.39999 5.3125 -8.24835
457 2 N 0.199995 0.5 0.399992 5.31181 -6.5258
458 2 N 0.299993 0.600007 0.399993 1.06517e-07 -6.52567
459 1 Ti 0.399996 0.600004 0.399996 4.84158e-08 -8.24849
460 2 N 0.399997 0.5 0.399996 5.31304 -6.52558
461 1 Ti 0.5 0.5 0.399997 5.31299 -8.24851
462 1 Ti 0.600004 0.600004 0.399996 4.84158e-08 -8.24849
463 2 N 0.600003 0.5 0.399996 5.31304 -6.52558
464 2 N 0.5 0.600003 0.399996 5.31304 -6.52558
465 1 Ti 0.700005 0.5 0.399995 10.6258 -8.24845
466 1 Ti 0.800006 0.600012 0.39999 5.3125 -8.24835
467 2 N 0.800005 0.5 0.399992 5.31181 -6.5258
468 2 N 0.700007 0.600007 0.399993 1.06517e-07 -6.52567
469 1 Ti 0.900002 0.5 0.399994 5.31017 -8.24811
470 2 N 0.900002 0.600023 0.399986 5.30768 -6.52586
471 1 Ti 0.0999946 0.700038 0.399962 10.6124 -8.24806
472 1 Ti 9.46349e-18 0.799988 0.399945 15.878 -8.24823
473 2 N 2.24133e-17 0.700042 0.399958 10.613 -6.52861
474 2 N 0.099986 0.800048 0.399897 5.29052 -6.5273
475 1 Ti 0.299989 0.700011 0.399989 2.57125e-07 -8.24848
476 1 Ti 0.199977 0.800023 0.399955 3.77185e-06 -8.24843
477 2 N 0.199988 0.700023 0.399977 5.22286e-07 -6.52588
478 2 N 0.299977 0.800012 0.399977 5.22286e-07 -6.52588
479 1 Ti 0.399988 0.800006 0.39999 5.3125 -8.24835
480 2 N 0.399993 0.700007 0.399993 1.06517e-07 -6.52567
481 1 Ti 0.5 0.700005 0.399995 10.6258 -8.24845
482 1 Ti 0.600012 0.800006 0.39999 5.3125 -8.24835
483 2 N 0.600007 0.700007 0.399993 1.06517e-07 -6.52567
484 2 N 0.5 0.800005 0.399992 5.31181 -6.5258
485 1 Ti 0.700011 0.700011 0.399989 2.57125e-07 -8.24848
486 1 Ti 0.800023 0.800023 0.399955 3.77185e-06 -8.24843
487 2 N 0.800012 0.700023 0.399977 5.22286e-07 -6.52588
488 2 N 0.700023 0.800012 0.399977 5.22286e-07 -6.52588
489 1 Ti 0.900005 0.700038 0.399962 10.6124 -8.24806
490 2 N 0.900014 0.800048 0.399897 5.29052 -6.5273
491 1 Ti 0.0999684 0.900032 0.399854 15.8543 -8.2437
492 2 N 1.69597e-17 0.899862 0.40013 10.3703 -6.5128
493 1 Ti 0.299962 0.900005 0.399962 10.6124 -8.24806
494 2 N 0.199952 0.900014 0.399897 5.29052 -6.5273
495 2 N 0.399977 0.900002 0.399986 5.30768 -6.52586
496 1 Ti 0.5 0.900002 0.399994 5.31017 -8.24811
497 2 N 0.600023 0.900002 0.399986 5.30768 -6.52586
498 1 Ti 0.700038 0.900005 0.399962 10.6124 -8.24806
499 2 N 0.800048 0.900014 0.399897 5.29052 -6.5273
500 1 Ti 0.900032 0.900032 0.399854 15.8543 -8.2437
501 1 Ti 0.100046 2.54188e-17 0.500056 10.5168 -8.25033
502 1 Ti -2.38503e-18 0.100046 0.500056 10.5168 -8.25033
503 1 Ti 1.5247e-17 2.2683e-17 0.6 5.3071 -8.25472
504 1 Ti 0.100005 0.100005 0.6 10.6142 -8.24784
505 2 N 2.84293e-17 3.33199e-17 0.500246 15.8009 -6.53313
506 2 N 0.100007 0.100007 0.499976 0.000102062 -6.52344
507 2 N 0.100042 1.30464e-17 0.6 5.28704 -6.52454
508 2 N 3.65194e-18 0.100042 0.6 5.28704 -6.52454
509 1 Ti 0.300004 1.59112e-17 0.499985 3.93136e-06 -8.24878
510 1 Ti 0.199991 0.0999969 0.499959 5.30734 -8.24745
511 1 Ti 0.200023 -1.85316e-17 0.6 5.30711 -8.24903
512 1 Ti 0.299994 0.0999984 0.6 5.31017 -8.24811
513 2 N 0.200033 1.98805e-18 0.499992 5.29901 -6.52413
514 2 N 0.299986 0.0999983 0.499977 5.30768 -6.52586
515 2 N 0.300009 -4.02455e-18 0.6 5.30995 -6.52538
516 2 N 0.2 0.100001 0.6 10.6197 -6.52507
517 1 Ti 0.399992 0.099999 0.499992 10.623 -8.24833
518 1 Ti 0.400001 -3.26607e-18 0.6 5.31216 -8.24872
519 2 N 0.399994 2.71611e-17 0.499994 10.6247 -6.52607
520 2 N 0.399995 0.0999997 0.6 5.31144 -6.5257
521 1 Ti 0.5 -5.91874e-18 0.500001 5.31216 -8.24872
522 1 Ti 0.600008 0.099999 0.499992 10.623 -8.24833
523 1 Ti 0.5 0.0999995 0.6 5.31282 -8.24842
524 1 Ti 0.599999 -1.19602e-17 0.6 5.31216 -8.24872
525 2 N 0.5 0.0999997 0.499995 5.31144 -6.5257
526 2 N 0.5 3.88353e-17 0.6 5.31299 -6.52586
527 2 N 0.600006 1.22108e-17 0.499994 10.6247 -6.52607
528 2 N 0.600005 0.0999997 0.6 5.31144 -6.5257
529 1 Ti 0.699996 -4.83206e-18 0.499985 3.93136e-06 -8.24878
530 1 Ti 0.800009 0.0999969 0.499959 5.30734 -8.24745
531 1 Ti 0.700006 0.0999984 0.6 5.31017 -8.24811
532 1 Ti 0.799977 8.83574e-18 0.6 5.30711 -8.24903
533 2 N 0.700014 0.0999983 0.499977 5.30768 -6.52586
534 2 N 0.699991 -2.3342e-18 0.6 5.30995 -6.52538
535 2 N 0.799967 -1.4202e-17 0.499992 5.29901 -6.52413
536 2 N 0.8 0.100001 0.6 10.6197 -6.52507
537 1 Ti 0.899954 1.66821e-18 0.500056 10.5168 -8.25033
538 1 Ti 0.899995 0.100005 0.6 10.6142 -8.24784
539 2 N 0.899993 0.100007 0.499976 0.000102062 -6.52344
540 2 N 0.899958 -7.31627e-18 0.6 5.28704 -6.52454
541 1 Ti 0.0999969 0.199991 0.499959 5.30734 -8.24745
542 1 Ti 2.59947e-17 0.300004 0.499985 3.93136e-06 -8.24878
543 1 Ti 3.18045e-17 0.200023 0.6 5.30711 -8.24903
544 1 Ti 0.0999984 0.299994 0.6 5.31017 -8.24811
545 2 N 9.8546e-20 0.200033 0.499992 5.29901 -6.52413
546 2 N 0.0999983 0.299986 0.499977 5.30768 -6.52586
547 2 N 0.100001 0.2 0.6 10.6197 -6.52507
548 2 N 5.99104e-17 0.300009 0.6 5.30995 -6.52538
549 1 Ti 0.29999 0.199994 0.499988 5.3125 -8.24835
550 1 Ti 0.199994 0.29999 0.499988 5.3125 -8.24835
551 1 Ti 0.199995 0.199995 0.6 5.31188 -8.24806
552 1 Ti 0.299995 0.299995 0.6 10.6258 -8.24845
553 2 N 0.199989 0.199989 0.499972 5.31053 -6.52606
554 2 N 0.299993 0.299993 0.499993 1.06517e-07 -6.52567
555 2 N 0.299992 0.199995 0.6 5.31181 -6.5258
556 2 N 0.199995 0.299992 0.6 5.31181 -6.5258
557 1 Ti 0.399996 0.299996 0.499996 4.84158e-08 -8.24849
558 1 Ti 0.399995 0.199997 0.6 5.31277 -8.24844
559 2 N 0.399993 0.199996 0.499993 5.3127 -6.52567
560 2 N 0.399997 0.299996 0.6 5.31304 -6.52558
561 1 Ti 0.5 0.199997 0.499995 5.31277 -8.24844
562 1 Ti 0.600004 0.299996 0.499996 4.84158e-08 -8.24849
563 1 Ti 0.5 0.299997 0.6 5.31299 -8.24851
564 1 Ti 0.600005 0.199997 0.6 5.31277 -8.24844
565 2 N 0.5 0.299996 0.499997 5.31304 -6.52558
566 2 N 0.5 0.199998 0.6 5.31284 -6.5256
567 2 N 0.600007 0.199996 0.499993 5.3127 -6.52567
568 2 N 0.600003 0.299996 0.6 5.31304 -6.52558
569 1 Ti 0.70001 0.199994 0.499988 5.3125 -8.24835
570 1 Ti 0.800006 0.29999 0.499988 5.3125 -8.24835
571 1 Ti 0.700005 0.299995 0.6 10.6258 -8.24845
572 1 Ti 0.800005 0.199995 0.6 5.31188 -8.24806
573 2 N 0.700007 0.299993 0.499993 1.06517e-07 -6.52567
574 2 N 0.700008 0.199995 0.6 5.31181 -6.5258
575 2 N 0.800011 0.199989 0.499972 5.31053 -6.52606
576 2 N 0.800005 0.299992 0.6 5.31181 -6.5258
577 1 Ti 0.900003 0.199991 0.499959 5.30734 -8.24745
578 1 Ti 0.900002 0.299994 0.6 5.31017 -8.24811