LAMMPS (23 Jun 2022)
Lattice spacing in x,y,z = 4.61 4.61 4.61
Created orthogonal box = (0 0 0) to (13.83 13.83 13.83)
  1 by 1 by 1 MPI processor grid
Lattice spacing in x,y,z = 4.61 4.61 4.61
Created 108 atoms
  using lattice units in orthogonal box = (0 0 0) to (13.83 13.83 13.83)
  create_atoms CPU = 0.000 seconds
Lattice spacing in x,y,z = 4.61 4.61 4.61
Created 108 atoms
  using lattice units in orthogonal box = (0 0 0) to (13.83 13.83 13.83)
  create_atoms CPU = 0.000 seconds
Reading MEAM library file library.meam with DATE: 2015-02-12
WARNING: Using 'neigh_modify every 1 delay 0 check yes' setting during minimization (src/min.cpp:187)
Neighbor list info ...
  update every 1 steps, delay 0 steps, check yes
  max neighbors/atom: 2000, page size: 100000
  master list distance cutoff = 7.26
  ghost atom cutoff = 7.26
  binsize = 3.63, bins = 4 4 4
  3 neighbor lists, perpetual/occasional/extra = 2 1 0
  (1) pair meam, perpetual
      attributes: full, newton on
      pair build: full/bin/atomonly
      stencil: full/bin/3d
      bin: standard
  (2) pair meam, perpetual, half/full from (1)
      attributes: half, newton on
      pair build: halffull/newton
      stencil: none
      bin: none
  (3) compute centro/atom, occasional, copy from (1)
      attributes: full, newton on
      pair build: copy
      stencil: none
      bin: none
Setting up cg style minimization ...
  Unit style    : metal
  Current step  : 0
Per MPI rank memory allocation (min/avg/max) = 12.48 | 12.48 | 12.48 Mbytes
   Step         PotEng           Lx             Ly             Lz           Press           Pxx            Pyy            Pzz          c_eatoms   
         0  -1595.592       13.83          13.83          13.83          0.018744771    0.018744771    0.018744771    0.018744771   -1595.592     
         1  -1595.592       13.83          13.83          13.83          0.018744771    0.018744771    0.018744771    0.01874477    -1595.592     
Loop time of 0.0127801 on 1 procs for 1 steps with 216 atoms

98.7% CPU use with 1 MPI tasks x no OpenMP threads

Minimization stats:
  Stopping criterion = energy tolerance
  Energy initial, next-to-last, final = 
     -1595.59200010376  -1595.59200010376  -1595.59200010376
  Force two-norm initial, final = 1.5645984e-13 1.4138456e-13
  Force max component initial, final = 1.4654944e-14 1.6209256e-14
  Final line search alpha, max atom move = 1 1.6209256e-14
  Iterations, force evaluations = 1 2

MPI task timing breakdown:
Section |  min time  |  avg time  |  max time  |%varavg| %total
---------------------------------------------------------------
Pair    | 0.011742   | 0.011742   | 0.011742   |   0.0 | 91.87
Neigh   | 0          | 0          | 0          |   0.0 |  0.00
Comm    | 2.8085e-05 | 2.8085e-05 | 2.8085e-05 |   0.0 |  0.22
Output  | 0          | 0          | 0          |   0.0 |  0.00
Modify  | 0          | 0          | 0          |   0.0 |  0.00
Other   |            | 0.00101    |            |       |  7.91

Nlocal:            216 ave         216 max         216 min
Histogram: 1 0 0 0 0 0 0 0 0 0
Nghost:           1981 ave        1981 max        1981 min
Histogram: 1 0 0 0 0 0 0 0 0 0
Neighs:          13176 ave       13176 max       13176 min
Histogram: 1 0 0 0 0 0 0 0 0 0
FullNghs:        26352 ave       26352 max       26352 min
Histogram: 1 0 0 0 0 0 0 0 0 0

Total # of neighbors = 26352
Ave neighs/atom = 122
Neighbor list builds = 0
Dangerous builds = 0
WARNING: No fixes with time integration, atoms won't move (src/verlet.cpp:60)
Setting up Verlet run ...
  Unit style    : metal
  Current step  : 1
  Time step     : 0.001
Per MPI rank memory allocation (min/avg/max) = 11.35 | 11.35 | 11.35 Mbytes
   Step         PotEng           Lx             Ly             Lz           Press           Pxx            Pyy            Pzz          c_eatoms   
         1  -1595.592       13.83          13.83          13.83          0.018744771    0.018744771    0.018744771    0.018744771   -1595.592     
Loop time of 3.708e-06 on 1 procs for 0 steps with 216 atoms

161.8% CPU use with 1 MPI tasks x no OpenMP threads

MPI task timing breakdown:
Section |  min time  |  avg time  |  max time  |%varavg| %total
---------------------------------------------------------------
Pair    | 0          | 0          | 0          |   0.0 |  0.00
Neigh   | 0          | 0          | 0          |   0.0 |  0.00
Comm    | 0          | 0          | 0          |   0.0 |  0.00
Output  | 0          | 0          | 0          |   0.0 |  0.00
Modify  | 0          | 0          | 0          |   0.0 |  0.00
Other   |            | 3.708e-06  |            |       |100.00

Nlocal:            216 ave         216 max         216 min
Histogram: 1 0 0 0 0 0 0 0 0 0
Nghost:           1981 ave        1981 max        1981 min
Histogram: 1 0 0 0 0 0 0 0 0 0
Neighs:          13176 ave       13176 max       13176 min
Histogram: 1 0 0 0 0 0 0 0 0 0
FullNghs:        26352 ave       26352 max       26352 min
Histogram: 1 0 0 0 0 0 0 0 0 0

Total # of neighbors = 26352
Ave neighs/atom = 122
Neighbor list builds = 0
Dangerous builds = 0
Deleted 1 atoms, new total = 215
WARNING: Using 'neigh_modify every 1 delay 0 check yes' setting during minimization (src/min.cpp:187)
Setting up cg style minimization ...
  Unit style    : metal
  Current step  : 0
Per MPI rank memory allocation (min/avg/max) = 12.48 | 12.48 | 12.48 Mbytes
   Step         PotEng           Lx             Ly             Lz           Press           Pxx            Pyy            Pzz          c_eatoms   
         0  -1583.4867      13.83          13.83          13.83         -3542.8014     -3542.8014     -3542.8014     -3542.8014     -1583.4867    
        10  -1584.8928      13.83          13.83          13.83         -1559.4242     -1559.4242     -1559.4242     -1559.4242     -1584.8928    
        14  -1584.8928      13.83          13.83          13.83         -1559.4316     -1559.4316     -1559.4316     -1559.4316     -1584.8928    
Loop time of 0.0692109 on 1 procs for 14 steps with 215 atoms

99.6% CPU use with 1 MPI tasks x no OpenMP threads

Minimization stats:
  Stopping criterion = energy tolerance
  Energy initial, next-to-last, final = 
     -1583.48674635818  -1584.89279235017  -1584.89279235017
  Force two-norm initial, final = 5.2092138 1.3263308e-06
  Force max component initial, final = 1.6539602 1.7056621e-07
  Final line search alpha, max atom move = 1 1.7056621e-07
  Iterations, force evaluations = 14 27

MPI task timing breakdown:
Section |  min time  |  avg time  |  max time  |%varavg| %total
---------------------------------------------------------------
Pair    | 0.068286   | 0.068286   | 0.068286   |   0.0 | 98.66
Neigh   | 0          | 0          | 0          |   0.0 |  0.00
Comm    | 0.00014421 | 0.00014421 | 0.00014421 |   0.0 |  0.21
Output  | 7.5e-06    | 7.5e-06    | 7.5e-06    |   0.0 |  0.01
Modify  | 0          | 0          | 0          |   0.0 |  0.00
Other   |            | 0.000773   |            |       |  1.12

Nlocal:            215 ave         215 max         215 min
Histogram: 1 0 0 0 0 0 0 0 0 0
Nghost:           1974 ave        1974 max        1974 min
Histogram: 1 0 0 0 0 0 0 0 0 0
Neighs:          13054 ave       13054 max       13054 min
Histogram: 1 0 0 0 0 0 0 0 0 0
FullNghs:        26108 ave       26108 max       26108 min
Histogram: 1 0 0 0 0 0 0 0 0 0

Total # of neighbors = 26108
Ave neighs/atom = 121.43256
Neighbor list builds = 0
Dangerous builds = 0
All done
Total number of atoms = 216
Initial energy of atoms = -1595.59200010379
Final energy of atoms = -1584.89279235016
Vacancy formation energy = 3.31220775314932
Total wall time: 0:00:00
