LAMMPS (23 Jun 2022)
# Compute elastic constant tensor for a crystal
#
# Written by Aidan Thompson (Sandia, athomps@sandia.gov)
#
#  This script uses the following three include files.
#
#   init.mod      (must be modified for different crystal structures)
# 	       	  Define units, deformation parameters and initial
#		  configuration of the atoms and simulation cell.
#
#
#   potential.mod    (must be modified for different pair styles)
# 		     Define pair style and other attributes
#		     not stored in restart file
#
#
#   displace.mod    (displace.mod should not need to be modified)
# 		    Perform positive and negative box displacements
# 		    in direction ${dir} and size ${up}.
# 		    It uses the resultant changes
#		    in stress to compute one
# 		    row of the elastic stiffness tensor
#
#		    Inputs variables:
#		    	   dir = the Voigt deformation component
#		    		    (1,2,3,4,5,6)
#		    Global constants:
#       	    	   up = the deformation magnitude (strain units)
#       		   cfac = conversion from LAMMPS pressure units to
#               	   output units for elastic constants
#
#
#  To run this on a different system, it should only be necessary to
#  modify the files init.mod and potential.mod. In order to calculate
#  the elastic constants correctly, care must be taken to specify
#  the correct units in init.mod (units, cfac and cunits). It is also
#  important to verify that the minimization of energy w.r.t atom
#  positions in the deformed cell is fully converged.
#  One indication of this is that the elastic constants are insensitive
#  to the choice of the variable ${up} in init.mod. Another is to check
#  the final max and two-norm forces reported in the log file. If you know
#  that minimization is not required, you can set maxiter = 0.0 in
#  init.mod.
#

include init.mod
# NOTE: This script can be modified for different atomic structures,
# units, etc. See in.elastic for more info.
#

# Define the finite deformation size. Try several values of this
# variable to verify that results do not depend on it.
variable up equal 1.0e-6

# Define the amount of random jiggle for atoms
# This prevents atoms from staying on saddle points
variable atomjiggle equal 1.0e-5

# Uncomment one of these blocks, depending on what units
# you are using in LAMMPS and for output

# metal units, elastic constants in eV/A^3
#units		metal
#variable cfac equal 6.2414e-7
#variable cunits string eV/A^3

# metal units, elastic constants in GPa
units		metal
variable cfac equal 1.0e-4
variable cunits string GPa

# real units, elastic constants in GPa
#units		real
#variable cfac equal 1.01325e-4
#variable cunits string GPa

# Define minimization parameters
variable etol equal 0.0
variable ftol equal 1.0e-10
variable maxiter equal 500
variable maxeval equal 1000
variable dmax equal 1.0e-2

# generate the box and atom positions using a diamond lattice
# variable a equal 5.43

boundary	p p p

lattice         fcc 4.538
Lattice spacing in x,y,z = 4.538 4.538 4.538
region		simbox prism -1.0 1.0 -1.0 1.0 -1.0 1.0 0.0 0.0 0.0
create_box	2 simbox
Created triclinic box = (-4.538 -4.538 -4.538) to (4.538 4.538 4.538) with tilt (0 0 0)
  1 by 1 by 1 MPI processor grid
lattice 	fcc 4.538 orient x 1 0 0 orient y 0 1 0 orient z 0 0 1
Lattice spacing in x,y,z = 4.538 4.538 4.538
create_atoms	1 region simbox
Created 32 atoms
  using lattice units in triclinic box = (-4.538 -4.538 -4.538) to (4.538 4.538 4.538) with tilt (0 0 0)
  create_atoms CPU = 0.000 seconds
lattice 	fcc 4.538  origin 0 0 0.5 orient x 1 0 0 orient y 0 1 0 orient z 0 0 1
Lattice spacing in x,y,z = 4.538 4.538 4.538
create_atoms	2 region simbox
Created 32 atoms
  using lattice units in triclinic box = (-4.538 -4.538 -4.538) to (4.538 4.538 4.538) with tilt (0 0 0)
  create_atoms CPU = 0.000 seconds

# Need to set mass to something, just to satisfy LAMMPS
mass 1 47.867
mass 2 14.007

include potential.mod
# NOTE: This script can be modified for different pair styles
# See in.elastic for more info.

# Choose potential
pair_style	meam
pair_coeff * * library_HfN.meam Hf N HfN.meam Hf N
Reading MEAM library file library_HfN.meam with DATE: 2015-02-12

# Setup neighbor style
neighbor 1.0 nsq
neigh_modify once no every 1 delay 0 check yes

# Setup minimization style
min_style	     cg
min_modify	     dmax ${dmax} line quadratic
min_modify	     dmax 0.01 line quadratic

# Setup output
thermo		1
thermo_style custom step temp pe press pxx pyy pzz pxy pxz pyz lx ly lz vol
thermo_modify norm no

# Compute initial state
fix 3 all box/relax  aniso 0.0
minimize ${etol} ${ftol} ${maxiter} ${maxeval}
minimize 0 ${ftol} ${maxiter} ${maxeval}
minimize 0 1e-10 ${maxiter} ${maxeval}
minimize 0 1e-10 500 ${maxeval}
minimize 0 1e-10 500 1000
Neighbor list info ...
  update every 1 steps, delay 0 steps, check yes
  max neighbors/atom: 2000, page size: 100000
  master list distance cutoff = 8.38
  ghost atom cutoff = 8.38
  2 neighbor lists, perpetual/occasional/extra = 2 0 0
  (1) pair meam, perpetual
      attributes: full, newton on
      pair build: full/nsq
      stencil: none
      bin: none
  (2) pair meam, perpetual, half/full from (1)
      attributes: half, newton on
      pair build: halffull/newton
      stencil: none
      bin: none
Per MPI rank memory allocation (min/avg/max) = 10.24 | 10.24 | 10.24 Mbytes
   Step          Temp          PotEng         Press           Pxx            Pyy            Pzz            Pxy            Pxz            Pyz             Lx             Ly             Lz           Volume    
         0   0             -653.44        -0.004375024   -0.004375024   -0.004375024   -0.004375024    5.6725355e-20  8.5088032e-20  0              9.076          9.076          9.076          747.62439    
         1   0             -653.44        -4.8534509e-08 -4.8534509e-08 -4.8534509e-08 -4.8534509e-08  0             -2.1639006e-25 -8.6556022e-25  9.076          9.076          9.076          747.62439    
Loop time of 0.0033983 on 1 procs for 1 steps with 64 atoms

98.5% CPU use with 1 MPI tasks x no OpenMP threads

Minimization stats:
  Stopping criterion = force tolerance
  Energy initial, next-to-last, final = 
     -653.439999877045  -653.439999877045  -653.439999877036
  Force two-norm initial, final = 3.5360156e-06 3.9226934e-11
  Force max component initial, final = 2.0415196e-06 2.2647681e-11
  Final line search alpha, max atom move = 1 2.2647681e-11
  Iterations, force evaluations = 1 2

MPI task timing breakdown:
Section |  min time  |  avg time  |  max time  |%varavg| %total
---------------------------------------------------------------
Pair    | 0.0033364  | 0.0033364  | 0.0033364  |   0.0 | 98.18
Neigh   | 0          | 0          | 0          |   0.0 |  0.00
Comm    | 1.321e-05  | 1.321e-05  | 1.321e-05  |   0.0 |  0.39
Output  | 0          | 0          | 0          |   0.0 |  0.00
Modify  | 0          | 0          | 0          |   0.0 |  0.00
Other   |            | 4.866e-05  |            |       |  1.43

Nlocal:             64 ave          64 max          64 min
Histogram: 1 0 0 0 0 0 0 0 0 0
Nghost:           1267 ave        1267 max        1267 min
Histogram: 1 0 0 0 0 0 0 0 0 0
Neighs:           6464 ave        6464 max        6464 min
Histogram: 1 0 0 0 0 0 0 0 0 0
FullNghs:        12928 ave       12928 max       12928 min
Histogram: 1 0 0 0 0 0 0 0 0 0

Total # of neighbors = 12928
Ave neighs/atom = 202
Neighbor list builds = 0
Dangerous builds = 0

variable tmp equal pxx
variable pxx0 equal ${tmp}
variable pxx0 equal -4.85345085623053e-08
variable tmp equal pyy
variable pyy0 equal ${tmp}
variable pyy0 equal -4.85345085623053e-08
variable tmp equal pzz
variable pzz0 equal ${tmp}
variable pzz0 equal -4.85345085623053e-08
variable tmp equal pyz
variable pyz0 equal ${tmp}
variable pyz0 equal -8.6556022434703e-25
variable tmp equal pxz
variable pxz0 equal ${tmp}
variable pxz0 equal -2.16390056086757e-25
variable tmp equal pxy
variable pxy0 equal ${tmp}
variable pxy0 equal 0

variable tmp equal lx
variable lx0 equal ${tmp}
variable lx0 equal 9.07599999684796
variable tmp equal ly
variable ly0 equal ${tmp}
variable ly0 equal 9.07599999684796
variable tmp equal lz
variable lz0 equal ${tmp}
variable lz0 equal 9.07599999684796

# These formulas define the derivatives w.r.t. strain components
# Constants uses $, variables use v_
variable d1 equal -(v_pxx1-${pxx0})/(v_delta/v_len0)*${cfac}
variable d1 equal -(v_pxx1--4.85345085623053e-08)/(v_delta/v_len0)*${cfac}
variable d1 equal -(v_pxx1--4.85345085623053e-08)/(v_delta/v_len0)*0.0001
variable d2 equal -(v_pyy1-${pyy0})/(v_delta/v_len0)*${cfac}
variable d2 equal -(v_pyy1--4.85345085623053e-08)/(v_delta/v_len0)*${cfac}
variable d2 equal -(v_pyy1--4.85345085623053e-08)/(v_delta/v_len0)*0.0001
variable d3 equal -(v_pzz1-${pzz0})/(v_delta/v_len0)*${cfac}
variable d3 equal -(v_pzz1--4.85345085623053e-08)/(v_delta/v_len0)*${cfac}
variable d3 equal -(v_pzz1--4.85345085623053e-08)/(v_delta/v_len0)*0.0001
variable d4 equal -(v_pyz1-${pyz0})/(v_delta/v_len0)*${cfac}
variable d4 equal -(v_pyz1--8.6556022434703e-25)/(v_delta/v_len0)*${cfac}
variable d4 equal -(v_pyz1--8.6556022434703e-25)/(v_delta/v_len0)*0.0001
variable d5 equal -(v_pxz1-${pxz0})/(v_delta/v_len0)*${cfac}
variable d5 equal -(v_pxz1--2.16390056086757e-25)/(v_delta/v_len0)*${cfac}
variable d5 equal -(v_pxz1--2.16390056086757e-25)/(v_delta/v_len0)*0.0001
variable d6 equal -(v_pxy1-${pxy0})/(v_delta/v_len0)*${cfac}
variable d6 equal -(v_pxy1-0)/(v_delta/v_len0)*${cfac}
variable d6 equal -(v_pxy1-0)/(v_delta/v_len0)*0.0001

displace_atoms all random ${atomjiggle} ${atomjiggle} ${atomjiggle} 87287 units box
displace_atoms all random 1e-05 ${atomjiggle} ${atomjiggle} 87287 units box
displace_atoms all random 1e-05 1e-05 ${atomjiggle} 87287 units box
displace_atoms all random 1e-05 1e-05 1e-05 87287 units box
Displacing atoms ...

# Write restart
unfix 3
write_restart restart.equil
System init for write_restart ...

# uxx Perturbation

variable dir equal 1
include displace.mod
# NOTE: This script should not need to be
# modified. See in.elastic for more info.
#
# Find which reference length to use

if "${dir} == 1" then    "variable len0 equal ${lx0}"
variable len0 equal ${lx0}
variable len0 equal 9.07599999684796
if "${dir} == 2" then    "variable len0 equal ${ly0}"
if "${dir} == 3" then    "variable len0 equal ${lz0}"
if "${dir} == 4" then    "variable len0 equal ${lz0}"
if "${dir} == 5" then    "variable len0 equal ${lz0}"
if "${dir} == 6" then    "variable len0 equal ${ly0}"

# Reset box and simulation parameters

clear
box tilt large
read_restart restart.equil
Reading restart file ...
  restart file = 23 Jun 2022, LAMMPS = 23 Jun 2022
  restoring atom style atomic from restart
  triclinic box = (-4.538 -4.538 -4.538) to (4.538 4.538 4.538) with tilt (0 0 0)
  1 by 1 by 1 MPI processor grid
  pair style meam stores no restart info
  64 atoms
  read_restart CPU = 0.000 seconds
include potential.mod
# NOTE: This script can be modified for different pair styles
# See in.elastic for more info.

# Choose potential
pair_style	meam
pair_coeff * * library_HfN.meam Hf N HfN.meam Hf N
Reading MEAM library file library_HfN.meam with DATE: 2015-02-12

# Setup neighbor style
neighbor 1.0 nsq
neigh_modify once no every 1 delay 0 check yes

# Setup minimization style
min_style	     cg
min_modify	     dmax ${dmax} line quadratic
min_modify	     dmax 0.01 line quadratic

# Setup output
thermo		1
thermo_style custom step temp pe press pxx pyy pzz pxy pxz pyz lx ly lz vol
thermo_modify norm no

# Negative deformation

variable delta equal -${up}*${len0}
variable delta equal -1e-06*${len0}
variable delta equal -1e-06*9.07599999684796
variable deltaxy equal -${up}*xy
variable deltaxy equal -1e-06*xy
variable deltaxz equal -${up}*xz
variable deltaxz equal -1e-06*xz
variable deltayz equal -${up}*yz
variable deltayz equal -1e-06*yz
if "${dir} == 1" then    "change_box all x delta 0 ${delta} xy delta ${deltaxy} xz delta ${deltaxz} remap units box"
change_box all x delta 0 ${delta} xy delta ${deltaxy} xz delta ${deltaxz} remap units box
change_box all x delta 0 -9.07599999684796e-06 xy delta ${deltaxy} xz delta ${deltaxz} remap units box
change_box all x delta 0 -9.07599999684796e-06 xy delta -0 xz delta ${deltaxz} remap units box
change_box all x delta 0 -9.07599999684796e-06 xy delta -0 xz delta -0 remap units box
Changing box ...
  triclinic box = (-4.538 -4.538 -4.538) to (4.5379909 4.538 4.538) with tilt (0 0 0)
  triclinic box = (-4.538 -4.538 -4.538) to (4.5379909 4.538 4.538) with tilt (0 0 0)
  triclinic box = (-4.538 -4.538 -4.538) to (4.5379909 4.538 4.538) with tilt (0 0 0)
if "${dir} == 2" then    "change_box all y delta 0 ${delta} yz delta ${deltayz} remap units box"
if "${dir} == 3" then    "change_box all z delta 0 ${delta} remap units box"
if "${dir} == 4" then    "change_box all yz delta ${delta} remap units box"
if "${dir} == 5" then    "change_box all xz delta ${delta} remap units box"
if "${dir} == 6" then    "change_box all xy delta ${delta} remap units box"

# Relax atoms positions

minimize ${etol} ${ftol} ${maxiter} ${maxeval}
minimize 0 ${ftol} ${maxiter} ${maxeval}
minimize 0 1e-10 ${maxiter} ${maxeval}
minimize 0 1e-10 500 ${maxeval}
minimize 0 1e-10 500 1000
Neighbor list info ...
  update every 1 steps, delay 0 steps, check yes
  max neighbors/atom: 2000, page size: 100000
  master list distance cutoff = 8.38
  ghost atom cutoff = 8.38
  2 neighbor lists, perpetual/occasional/extra = 2 0 0
  (1) pair meam, perpetual
      attributes: full, newton on
      pair build: full/nsq
      stencil: none
      bin: none
  (2) pair meam, perpetual, half/full from (1)
      attributes: half, newton on
      pair build: halffull/newton
      stencil: none
      bin: none
Per MPI rank memory allocation (min/avg/max) = 10.2 | 10.2 | 10.2 Mbytes
   Step          Temp          PotEng         Press           Pxx            Pyy            Pzz            Pxy            Pxz            Pyz             Lx             Ly             Lz           Volume    
         1   0             -653.44         4.1993611      4.9899909      3.8040439      3.8040486      8.788331e-06   1.0254485e-05  6.6748372e-06  9.0759909      9.076          9.076          747.62364    
         2   0             -653.44         4.1992582      4.9898893      3.8039382      3.8039471      1.1748509e-06 -1.7838803e-06  1.4055406e-07  9.0759909      9.076          9.076          747.62364    
         3   0             -653.44         4.1991812      4.9898182      3.8038628      3.8038626      3.4578111e-06  1.0620174e-06 -8.3882106e-07  9.0759909      9.076          9.076          747.62364    
         4   0             -653.44         4.1991069      4.9897392      3.803791       3.8037905      1.629186e-06  -2.7364822e-08 -3.2047857e-07  9.0759909      9.076          9.076          747.62364    
         5   0             -653.44         4.1990753      4.9897086      3.8037595      3.8037579      1.1042457e-06 -7.8908923e-07 -3.812984e-07   9.0759909      9.076          9.076          747.62364    
         6   0             -653.44         4.1990514      4.9896854      3.8037353      3.8037334      8.0251579e-07 -1.109147e-06   1.1804108e-07  9.0759909      9.076          9.076          747.62364    
         7   0             -653.44         4.1990093      4.9896446      3.8036926      3.8036906      8.3352028e-07 -1.9026083e-06 -2.1775329e-07  9.0759909      9.076          9.076          747.62364    
         8   0             -653.44         4.1988861      4.9895262      3.8035676      3.8035645      2.7193626e-06 -3.8439593e-06 -1.5305397e-06  9.0759909      9.076          9.076          747.62364    
         9   0             -653.44         4.198385       4.9890492      3.8030548      3.8030509      8.631064e-06  -1.231935e-05  -2.8309004e-06  9.0759909      9.076          9.076          747.62364    
        10   0             -653.44         3.7990191      4.6143538      3.3909596      3.391744       0.0048563963  -0.0057298348  -0.00063187244  9.0759909      9.076          9.076          747.62364    
        11   0             -653.44013     -62.869762     -57.883057     -65.438142     -65.288086      0.81837304    -0.9397161     -0.11779998     9.0759909      9.076          9.076          747.62364    
        12   0             -653.44049     -243.74222     -227.46085     -252.17157     -251.59424      3.0374407     -3.458312      -0.45820499     9.0759909      9.076          9.076          747.62364    
        13   0             -653.44106     -538.73698     -504.14487     -556.67492     -555.39117      6.6817116     -7.5527109     -1.0528066      9.0759909      9.076          9.076          747.62364    
        14   0             -653.44183     -947.74042     -887.98309     -978.7529      -976.48526      11.774667     -13.22329      -1.9367152      9.0759909      9.076          9.076          747.62364    
        15   0             -653.4428      -1471.0675     -1379.4719     -1518.6347     -1515.096       18.348475     -20.478357     -3.1654213      9.0759909      9.076          9.076          747.62364    
        16   0             -653.44407     -2111.643      -1981.547      -2179.1787     -2174.2032      26.461096     -29.316613     -4.8958442      9.0759909      9.076          9.076          747.62364    
        17   0             -653.4465      -2895.3171     -2718.0787     -2987.0663     -2980.8062      36.341957     -39.665177     -7.828246       9.0759909      9.076          9.076          747.62364    
        18   0             -653.44929     -3073.6499     -2880.4344     -3173.7725     -3166.7429      37.024139     -40.762892     -5.7082091      9.0759909      9.076          9.076          747.62364    
        19   0             -653.45689     -3965.7294     -3704.5552     -4119.551      -4073.082       31.352261     -56.488368     -1.4676723      9.0759909      9.076          9.076          747.62364    
        20   0             -653.4637      -4970.5033     -4623.3572     -5166.9213     -5121.2315      34.805625     -67.429143     -8.366598       9.0759909      9.076          9.076          747.62364    
        21   0             -653.46925     -6120.8072     -5691.1785     -6371.4166     -6299.8264      38.398365     -80.429767     -10.896981      9.0759909      9.076          9.076          747.62364    
        22   0             -653.47652     -7514.6596     -6975.7591     -7831.101      -7737.1186      45.36415      -93.700122     -12.444976      9.0759909      9.076          9.076          747.62364    
        23   0             -653.47915     -7974.0308     -7390.4991     -8310.6847     -8220.9085      46.424761     -96.819126     -11.017743      9.0759909      9.076          9.076          747.62364    
        24   0             -653.48593     -10080.029     -9331.4812     -10530.242     -10378.365      53.390758     -112.94248     -10.007329      9.0759909      9.076          9.076          747.62364    
        25   0             -653.49687     -12523.25      -11585.946     -13086.316     -12897.489      64.264255     -84.511651     -15.397735      9.0759909      9.076          9.076          747.62364    
        26   0             -653.50242     -13378.146     -12373.968     -13970.861     -13789.609      67.027546     -63.866519     -26.829777      9.0759909      9.076          9.076          747.62364    
        27   0             -653.50631     -14736.295     -13628.179     -15394.998     -15185.709      64.952244     -2.6142586     -32.304567      9.0759909      9.076          9.076          747.62364    
        28   0             -653.5174      -17552.568     -16219.95      -18347.271     -18090.482      12.75829       299.2471      -33.016258      9.0759909      9.076          9.076          747.62364    
        29   0             -653.52134     -18106.178     -16718.552     -18926.748     -18673.233     -9.0663844      401.44203     -27.348421      9.0759909      9.076          9.076          747.62364    
        30   0             -653.52745     -20239.698     -18680.332     -21171.103     -20867.659     -131.00634      913.31776     -16.558699      9.0759909      9.076          9.076          747.62364    
        31   0             -653.53616     -22387.743     -20662.406     -23410.878     -23089.947     -325.535        1688.6095     -23.018104      9.0759909      9.076          9.076          747.62364    
        32   0             -653.54653     -23595.272     -21772.489     -24652.157     -24361.171     -521.32174      2518.5315     -51.066671      9.0759909      9.076          9.076          747.62364    
        33   0             -653.55749     -24510.864     -22600.444     -25603.24      -25328.909     -787.20183      3844.0423     -74.410988      9.0759909      9.076          9.076          747.62364    
        34   0             -653.57347     -24981.67      -22982.402     -26103.273     -25859.336     -1067.068       5496.0677     -96.333515      9.0759909      9.076          9.076          747.62364    
        35   0             -653.59818     -25006.962     -22907.956     -26166.777     -25946.153     -1354.7853      7385.2605     -121.95687      9.0759909      9.076          9.076          747.62364    
        36   0             -653.6325      -24529.62      -22313.573     -25762.262     -25513.025     -1632.8427      9236.8059     -147.02004      9.0759909      9.076          9.076          747.62364    
        37   0             -653.67569     -23501.952     -21140.249     -24882.904     -24482.702     -1886.4604      10677.443     -163.75696      9.0759909      9.076          9.076          747.62364    
        38   0             -653.72476     -21873.816     -19318.437     -23538.65      -22764.36      -2104.7127      11284.442     -162.83464      9.0759909      9.076          9.076          747.62364    
        39   0             -653.77396     -19577.362     -16751.539     -21742.272     -20238.275     -2280.5158      10646.167     -134.18138      9.0759909      9.076          9.076          747.62364    
        40   0             -653.81275     -16790.03      -13623.122     -19676.557     -17070.411     -2408.4408      8742.0834     -74.322079      9.0759909      9.076          9.076          747.62364    
        41   0             -653.83675     -14851.223     -11478.158     -18207.174     -14868.338     -2567.9543      7407.5297     -27.877605      9.0759909      9.076          9.076          747.62364    
        42   0             -653.85843     -14140.478     -10772.764     -17491.813     -14156.858     -2911.3771      7586.1641     -18.938754      9.0759909      9.076          9.076          747.62364    
        43   0             -653.87775     -13036.162     -9616.5198     -16521.242     -12970.723     -3303.5973      7041.5799      21.649445      9.0759909      9.076          9.076          747.62364    
        44   0             -653.89742     -12776.821     -9428.4285     -16062.91      -12839.124     -3919.3165      7372.5482      39.225283      9.0759909      9.076          9.076          747.62364    
        45   0             -653.91339     -11488.931     -8072.1216     -14887.262     -11507.409     -4087.5253      6229.3296      126.18543      9.0759909      9.076          9.076          747.62364    
        46   0             -653.93029     -11803.59      -8504.7299     -14774.26      -12131.78      -4585.0138      7042.7737      119.21314      9.0759909      9.076          9.076          747.62364    
        47   0             -653.94454     -10530.656     -7186.4911     -13437.877     -10967.601     -4214.1512      6064.6255      215.70857      9.0759909      9.076          9.076          747.62364    
        48   0             -653.96244     -11526.85      -8302.6417     -13859.479     -12418.429     -4912.6172      7783.3203      143.0119       9.0759909      9.076          9.076          747.62364    
        49   0             -653.97993     -9966.4366     -6662.2824     -12157.756     -11079.272     -4016.473       7208.8091      232.41281      9.0759909      9.076          9.076          747.62364    
        50   0             -654.00676     -10539.458     -7215.6786     -12498.074     -11904.622     -4856.3952      9351.7044      157.50191      9.0759909      9.076          9.076          747.62364    
        51   0             -654.03813     -10760.628     -7356.1744     -12710.121     -12215.587     -5787.0222      11614.879      102.93795      9.0759909      9.076          9.076          747.62364    
        52   0             -654.07839     -9925.2537     -6373.9041     -11975.604     -11426.253     -6258.1647      13358.122      91.61188       9.0759909      9.076          9.076          747.62364    
        53   0             -654.12672     -8622.6037     -4881.2261     -10867.719     -10118.866     -6772.6181      14789.866      83.546421      9.0759909      9.076          9.076          747.62364    
        54   0             -654.18164     -6950.2751     -2967.0992     -9522.3782     -8361.3479     -7502.7777      15715.677      67.025588      9.0759909      9.076          9.076          747.62364    
        55   0             -654.24382     -4524.2147     -202.64493     -7632.7888     -5737.2104     -8411.0291      15772.071      47.274599      9.0759909      9.076          9.076          747.62364    
        56   0             -654.3005      -2000.3951      2662.1813     -5623.6477     -3039.7188     -9232.807       15428.26       31.472367      9.0759909      9.076          9.076          747.62364    
        57   0             -654.35221      207.02338      5143.6396     -3733.2155     -789.3539      -9757.472       15296.627      32.739531      9.0759909      9.076          9.076          747.62364    
        58   0             -654.40369      2514.126       7696.5844     -1631.064       1476.8576     -9845.8259      15044.643      74.456792      9.0759909      9.076          9.076          747.62364    
        59   0             -654.45359      5311.13        10746.423      982.13866      4204.8286     -9290.4301      14176.554      188.19489      9.0759909      9.076          9.076          747.62364    
        60   0             -654.49203      8448.7033      14121.124      3918.5486      7306.4374     -8054.9066      12518.772      376.09587      9.0759909      9.076          9.076          747.62364    
        61   0             -654.51778      10674.219      16454.212      5983.5091      9584.9349     -7023.6612      11171.554      502.8705       9.0759909      9.076          9.076          747.62364    
        62   0             -654.54446      11045.65       16734.763      6302.6805      10099.506     -7105.8382      11282.789      441.63059      9.0759909      9.076          9.076          747.62364    
        63   0             -654.56517      13052.257      18716.123      8277.2089      12163.438     -5682.8174      9679.5369      582.47316      9.0759909      9.076          9.076          747.62364    
        64   0             -654.57991      11504.58       17017.616      6819.8813      10676.243     -6670.6027      10977.747      404.95365      9.0759909      9.076          9.076          747.62364    
        65   0             -654.59936      12887.629      18364.992      8241.9094      12055.987     -5409.9798      9556.4337      482.7516       9.0759909      9.076          9.076          747.62364    
        66   0             -654.61567      10601.591      15997.444      6068.2986      9739.0295     -6690.6792      10937.425      303.87042      9.0759909      9.076          9.076          747.62364    
        67   0             -654.63542      11813.479      17237.58       7337.4511      10865.406     -5517.2796      9356.7104      401.30395      9.0759909      9.076          9.076          747.62364    
        68   0             -654.65245      11371.086      16886.02       6922.5617      10304.677     -5751.177       9119.2153      394.07709      9.0759909      9.076          9.076          747.62364    
        69   0             -654.6674       12062.113      17626.476      7605.0814      10954.783     -5347.8186      8021.965       416.1904       9.0759909      9.076          9.076          747.62364    
        70   0             -654.68878      11632.456      17252.087      7195.348       10449.933     -5958.0827      7882.0163      413.93548      9.0759909      9.076          9.076          747.62364    
        71   0             -654.70056      10817.922      16503.491      6475.7117      9474.562      -6854.6139      8369.2285      425.65412      9.0759909      9.076          9.076          747.62364    
        72   0             -654.72021      10939.124      16668.334      6611.6721      9537.3673     -7479.7509      8106.0734      455.18608      9.0759909      9.076          9.076          747.62364    
        73   0             -654.74822      12538.425      18216.281      8145.6898      11253.302     -7449.4625      6672.8343      559.22842      9.0759909      9.076          9.076          747.62364    
        74   0             -654.77346      13450.008      19138.92       9095.4662      12115.639     -7853.4305      5908.4064      657.2957       9.0759909      9.076          9.076          747.62364    
        75   0             -654.80392      13654.241      19413.182      9441.279       12108.263     -8673.6259      5943.1019      711.97491      9.0759909      9.076          9.076          747.62364    
        76   0             -654.83423      14954.271      20678.211      11018.864      13165.737     -8388.8374      5275.6603      867.00398      9.0759909      9.076          9.076          747.62364    
        77   0             -654.86563      16338.758      22023.552      12833.938      14158.783     -7738.4134      4728.3905      989.24755      9.0759909      9.076          9.076          747.62364    
        78   0             -654.90225      17948.528      23624.103      15105.786      15115.694     -6524.4381      4283.1726      1053.5536      9.0759909      9.076          9.076          747.62364    
        79   0             -654.94341      18924.935      24592.683      16707.369      15474.752     -5476.3709      4161.6987      965.42351      9.0759909      9.076          9.076          747.62364    
        80   0             -654.9779       19989.036      25642.226      18158.91       16165.97      -4009.6229      3667.5023      947.10703      9.0759909      9.076          9.076          747.62364    
        81   0             -655.00973      20042.566      25663.831      18485.76       15978.106     -3154.0542      3900.492       853.3148       9.0759909      9.076          9.076          747.62364    
        82   0             -655.04249      20698.07       26315.324      19345.856      16433.029     -1878.8641      3733.8672      835.34063      9.0759909      9.076          9.076          747.62364    
        83   0             -655.07752      21313.372      26941.535      20152.063      16846.518     -845.11328      3732.8933      818.85206      9.0759909      9.076          9.076          747.62364    
        84   0             -655.11488      22093.277      27760.287      21143.044      17376.502     -189.0126       3786.9509      801.27655      9.0759909      9.076          9.076          747.62364    
        85   0             -655.15304      23151.445      28900.448      22458.078      18095.81      -80.628867      3833.5768      790.9193       9.0759909      9.076          9.076          747.62364    
        86   0             -655.18957      24471.56       30356.761      24101.802      18956.118     -677.23054      3883.7126      789.15431      9.0759909      9.076          9.076          747.62364    
        87   0             -655.2231       25982.415      32057.085      26007.043      19883.117     -1947.1232      3938.3294      796.17688      9.0759909      9.076          9.076          747.62364    
        88   0             -655.24961      26894.031      33081.901      27179.073      20421.117     -2803.445       3949.8717      806.26128      9.0759909      9.076          9.076          747.62364    
        89   0             -655.27532      27298.292      33510.538      27695.272      20689.067     -2938.445       3864.2386      829.32898      9.0759909      9.076          9.076          747.62364    
        90   0             -655.30216      27684.513      33941.985      28162.998      20948.556     -2995.449       3727.5923      893.74702      9.0759909      9.076          9.076          747.62364    
        91   0             -655.33328      28038.678      34386.434      28560.531      21169.069     -2902.9354      3523.7258      1088.8725      9.0759909      9.076          9.076          747.62364    
        92   0             -655.37526      28570.026      35119.335      29086.196      21504.547     -2646.3806      3163.2724      1458.0154      9.0759909      9.076          9.076          747.62364    
        93   0             -655.41815      29236.52       36047.173      29676.667      21985.721     -2234.6956      2771.1422      1807.1349      9.0759909      9.076          9.076          747.62364    
        94   0             -655.46694      30279.395      37399.538      30574.357      22864.29      -1784.05        2380.2435      2124.6336      9.0759909      9.076          9.076          747.62364    
        95   0             -655.52385      31838.423      39296.424      31897.45       24321.394     -1367.7582      2143.9607      2411.9001      9.0759909      9.076          9.076          747.62364    
        96   0             -655.58814      34082.475      41881.649      33785.208      26580.568     -1100.285       2275.804       2680.3162      9.0759909      9.076          9.076          747.62364    
        97   0             -655.65463      37184.563      45292.721      36381.962      29879.005     -1163.3277      2957.6694      2895.3166      9.0759909      9.076          9.076          747.62364    
        98   0             -655.7077       40685.95       49005.567      39326.752      33725.529     -1669.9613      3878.6887      2981.8065      9.0759909      9.076          9.076          747.62364    
        99   0             -655.74503      43856.881      52289.385      42059.525      37221.734     -2418.8682      4224.9258      2919.9252      9.0759909      9.076          9.076          747.62364    
       100   0             -655.77852      45218.203      53719.227      43367.715      38567.668     -2691.814       3327.7081      2790.9319      9.0759909      9.076          9.076          747.62364    
       101   0             -655.81083      45643.899      54166.711      43923.447      38841.538     -2603.945       2761.9601      2745.9289      9.0759909      9.076          9.076          747.62364    
       102   0             -655.84155      46509.621      54946.032      44766.326      39816.506     -2967.6426      2811.9141      2687.3011      9.0759909      9.076          9.076          747.62364    
       103   0             -655.87261      44555.216      53096.584      43219.518      37349.547     -1873.1281      1978.774       2636.3072      9.0759909      9.076          9.076          747.62364    
       104   0             -655.90669      47052.412      55385.267      45380.034      40391.935     -2672.3474      2520.3833      2555.5099      9.0759909      9.076          9.076          747.62364    
       105   0             -655.93424      46592.457      54951.947      44970.748      39854.677     -2086.1265      2424.7926      2451.8862      9.0759909      9.076          9.076          747.62364    
       106   0             -655.95964      47423.572      55787.769      45726.352      40756.595     -1558.4724      2210.8345      2368.0209      9.0759909      9.076          9.076          747.62364    
       107   0             -655.98531      47705.259      56072.168      45999.045      41044.564     -1031.9825      2066.7499      2250.7055      9.0759909      9.076          9.076          747.62364    
       108   0             -656.01207      48698.961      57057.586      47000.12       42039.177     -545.87343      1743.7232      2152.5144      9.0759909      9.076          9.076          747.62364    
       109   0             -656.04008      49438.23       57787.696      47847.253      42679.742     -290.76348      1511.6389      2027.6938      9.0759909      9.076          9.076          747.62364    
       110   0             -656.06972      50603.878      58948.321      49189.239      43674.074     -253.74224      1230.2801      1918.3281      9.0759909      9.076          9.076          747.62364    
       111   0             -656.10314      51610.606      59971.212      50477.719      44382.888     -523.33419      1168.153       1798.9919      9.0759909      9.076          9.076          747.62364    
       112   0             -656.14101      53002.971      61423.207      52100.321      45485.384     -681.9925       1174.594       1730.6107      9.0759909      9.076          9.076          747.62364    
       113   0             -656.18025      53257.881      61752.878      52466.731      45554.034     -1146.4976      1394.0206      1605.8253      9.0759909      9.076          9.076          747.62364    
       114   0             -656.21988      55575.569      64194.234      54669.08       47863.394     -946.46812      409.42687      1616.038       9.0759909      9.076          9.076          747.62364    
       115   0             -656.26673      55405.038      64126.702      54384.375      47704.037     -1852.9987      233.61791      1459.5472      9.0759909      9.076          9.076          747.62364    
       116   0             -656.31335      57668.806      66550.124      56396.282      50060.013     -1728.4196     -965.13586      1458.2535      9.0759909      9.076          9.076          747.62364    
       117   0             -656.35963      59491.334      68493.127      57890.189      52090.686     -1930.2228     -1386.1339      1458.7137      9.0759909      9.076          9.076          747.62364    
       118   0             -656.40572      61636.851      70731.063      59590.851      54588.639     -2157.0659     -1066.2235      1509.4865      9.0759909      9.076          9.076          747.62364    
       119   0             -656.44736      64150.618      73294.197      61561.893      57595.763     -2279.9894     -228.34477      1641.9151      9.0759909      9.076          9.076          747.62364    
       120   0             -656.48505      65830.672      74971.194      62865.017      59655.806     -2363.2998      164.30549      1794.5998      9.0759909      9.076          9.076          747.62364    
       121   0             -656.52923      67235.981      76328.021      64109.737      61270.184     -2101.9123     -439.81784      1908.8         9.0759909      9.076          9.076          747.62364    
       122   0             -656.58127      68566.344      77527.205      65351.507      62820.32      -1780.6905     -1023.9444      1946.1529      9.0759909      9.076          9.076          747.62364    
       123   0             -656.63907      70691.544      79500.984      67576.277      64997.371     -623.32752     -2417.0215      1939.8513      9.0759909      9.076          9.076          747.62364    
       124   0             -656.69275      71611.619      80249.718      68558.341      66026.797     -387.60647     -2993.6939      1895.8034      9.0759909      9.076          9.076          747.62364    
       125   0             -656.74343      73766.9        82266.822      70808.699      68225.18       553.01705     -3953.7937      1880.4319      9.0759909      9.076          9.076          747.62364    
       126   0             -656.79179      74972.375      83321.606      71960.099      69635.421      467.43838     -4039.0423      1898.6151      9.0759909      9.076          9.076          747.62364    
       127   0             -656.83897      77050.627      85267.749      73907.822      71976.311      739.38451     -3882.9311      1985.4451      9.0759909      9.076          9.076          747.62364    
       128   0             -656.88199      78300.412      86375.638      74911.346      73614.25       606.63904     -3358.0536      2132.4535      9.0759909      9.076          9.076          747.62364    
       129   0             -656.91868      79796.679      87729.718      76279.846      75380.472      1305.3989     -3560.2148      2225.6228      9.0759909      9.076          9.076          747.62364    
       130   0             -656.95374      80340.362      88083.73       76653.226      76284.13       1167.7786     -3503.5013      2334.6848      9.0759909      9.076          9.076          747.62364    
       131   0             -656.9893       82532.432      90138.054      78811.166      78648.075      2224.2096     -4059.643       2374.088       9.0759909      9.076          9.076          747.62364    
       132   0             -657.02739      81804.452      89116.128      77812.273      78484.955      953.42156     -3851.3087      2523.74        9.0759909      9.076          9.076          747.62364    
       133   0             -657.06667      86070.218      93307.263      82102.731      82800.661      2988.5507     -4825.9929      2451.726       9.0759909      9.076          9.076          747.62364    
       134   0             -657.10372      85542.14       92492.201      81346.556      82787.661      1950.8841     -4879.5783      2636.8391      9.0759909      9.076          9.076          747.62364    
       135   0             -657.1366       87616.932      94455.621      83378.459      85016.715      2197.3106     -5359.7959      2539.4764      9.0759909      9.076          9.076          747.62364    
       136   0             -657.16885      86478.995      92989.737      82199.779      84247.469      852.831       -5398.6084      2604.3464      9.0759909      9.076          9.076          747.62364    
       137   0             -657.20344      91219.919      97778.477      87064.113      88817.166      1317.6592     -6343.7894      2252.6582      9.0759909      9.076          9.076          747.62364    
       138   0             -657.23742      90745.164      96974.917      86619.868      88640.707      508.87938     -5960.3939      2202.4886      9.0759909      9.076          9.076          747.62364    
       139   0             -657.2662       92148.675      98236.411      87881.351      90328.264      115.42735     -6721.2834      1839.6051      9.0759909      9.076          9.076          747.62364    
       140   0             -657.2898       91108.327      96989.715      87014.283      89320.983      2028.722      -5411.6062      1760.2309      9.0759909      9.076          9.076          747.62364    
       141   0             -657.31615      94799.678      100618.98      90533.914      93246.143      81.479054     -6477.8448      1473.1908      9.0759909      9.076          9.076          747.62364    
       142   0             -657.34065      94148.886      99778.324      90082.311      92586.024      1018.4407     -5930.9485      1269.1671      9.0759909      9.076          9.076          747.62364    
       143   0             -657.36417      96188.605      101712.45      92230.348      94623.022      1552.7979     -5680.9739      966.85264      9.0759909      9.076          9.076          747.62364    
       144   0             -657.38758      95531.801      100883.87      91805.412      93906.117      1515.7964     -5374.9295      871.17735      9.0759909      9.076          9.076          747.62364    
       145   0             -657.41197      98720.929      103981.48      95212.09       96969.216      2053.9571     -5131.7737      466.31599      9.0759909      9.076          9.076          747.62364    
       146   0             -657.43676      97691.833      102756.92      94555.615      95762.966      2316.2233     -4660.0897      374.41616      9.0759909      9.076          9.076          747.62364    
       147   0             -657.4625       101021.38      105952.41      98308.045      98803.68       2735.6334     -4625.3186     -76.72371       9.0759909      9.076          9.076          747.62364    
       148   0             -657.48962      99422.006      104122.47      97320.004      96823.54       3514.9651     -4240.1747     -132.64283      9.0759909      9.076          9.076          747.62364    
       149   0             -657.51943      104561.56      109059.99      103166.02      101458.66      4017.9957     -4462.6275     -645.84424      9.0759909      9.076          9.076          747.62364    
       150   0             -657.54646      103257.32      107619.14      102398.11      99754.711      4626.9773     -4490.3858     -595.45967      9.0759909      9.076          9.076          747.62364    
       151   0             -657.57001      103601.51      107839.04      102990.38      99975.102      5245.543      -4282.5738     -583.70027      9.0759909      9.076          9.076          747.62364    
       152   0             -657.59344      104732.05      108876.75      104371.24      100948.15      4844.9936     -4683.7797     -682.28929      9.0759909      9.076          9.076          747.62364    
       153   0             -657.61635      105275.62      109278.46      105190.76      101357.63      6130.0137     -4039.6168     -642.49199      9.0759909      9.076          9.076          747.62364    
       154   0             -657.63918      105518.38      109492.58      105592.22      101470.34      5859.2738     -4704.1423     -620.85915      9.0759909      9.076          9.076          747.62364    
       155   0             -657.66084      107128.32      110967.75      107396.46      103020.77      6639.8472     -3910.0115     -640.32728      9.0759909      9.076          9.076          747.62364    
       156   0             -657.68203      106482.23      110384.09      106773.61      102289         5906.4495     -5039.0635     -462.14562      9.0759909      9.076          9.076          747.62364    
       157   0             -657.70539      108311.5       112083.16      108765.1       104086.24      6614.2997     -4186.7305     -451.51811      9.0759909      9.076          9.076          747.62364    
       158   0             -657.72904      108684.04      112471.26      109148.59      104432.28      6101.6792     -4585.6236     -345.75313      9.0759909      9.076          9.076          747.62364    
       159   0             -657.75493      110387.43      114074.87      110956.77      106130.65      6313.8563     -3986.6003     -301.53042      9.0759909      9.076          9.076          747.62364    
       160   0             -657.78129      110629.19      114374.22      111163.86      106349.49      5235.7625     -4589.163      -213.75815      9.0759909      9.076          9.076          747.62364    
       161   0             -657.80909      112663.77      116255.9       113411.96      108323.44      5534.3732     -3898.78       -269.20309      9.0759909      9.076          9.076          747.62364    
       162   0             -657.83398      113355.76      116926.01      114263.43      108877.84      5036.8073     -4234.2922     -239.45838      9.0759909      9.076          9.076          747.62364    
       163   0             -657.8605       115953.12      119251.83      117424.7       111182.84      6243.0708     -3393.3078     -333.22223      9.0759909      9.076          9.076          747.62364    
       164   0             -657.88197      115584.84      118978.66      117110.15      110665.72      5157.6135     -4353.8015     -106.52977      9.0759909      9.076          9.076          747.62364    
       165   0             -657.90882      118054.62      121178.77      120133.07      112852         6667.8685     -3351.0488      26.947917      9.0759909      9.076          9.076          747.62364    
       166   0             -657.93259      118023.12      121143.21      119978.96      112947.2       5738.0021     -3986.1117      433.23168      9.0759909      9.076          9.076          747.62364    
       167   0             -657.95515      119841.63      122739.55      122070.38      114714.97      7529.2707     -2701.2466      653.65106      9.0759909      9.076          9.076          747.62364    
       168   0             -657.97879      120212.61      123013.47      122274.6       115349.75      6751.5504     -3485.7694      1045.5064      9.0759909      9.076          9.076          747.62364    
       169   0             -658.00076      120378         123235.02      122294.91      115604.07      8274.1617     -2412.8716      1319.0936      9.0759909      9.076          9.076          747.62364    
       170   0             -658.02152      122379.34      124940.84      124306.56      117890.63      6623.7388     -4052.521       1844.7124      9.0759909      9.076          9.076          747.62364    
       171   0             -658.04572      122695.28      125280.8       124401.56      118403.47      7473.7282     -3248.8943      2224.2271      9.0759909      9.076          9.076          747.62364    
       172   0             -658.05195      121635.61      124491.53      123155.36      117259.94      9689.4506     -1490.9736      2198.7523      9.0759909      9.076          9.076          747.62364    
       173   0             -658.07874      122545.17      125448.83      123857.2       118329.48      10526.08      -1045.2273      2703.1775      9.0759909      9.076          9.076          747.62364    
       174   0             -658.08667      123377.13      126049.86      124697.33      119384.2       8443.1928     -2412.6106      2909.738       9.0759909      9.076          9.076          747.62364    
       175   0             -658.10838      123698.43      126526.78      124738.38      119830.13      8440.6423     -1570.5207      3242.2697      9.0759909      9.076          9.076          747.62364    
       176   0             -658.11973      123678.59      126864.69      124518.65      119652.43      11266.796     -148.60387      3362.3822      9.0759909      9.076          9.076          747.62364    
       177   0             -658.13543      124299.11      127604.79      124851.94      120440.61      12023.556     -121.38462      3650.6484      9.0759909      9.076          9.076          747.62364    
       178   0             -658.14947      124376.36      127481.38      124775.37      120872.33      9921.0013     -841.3875       3758.0442      9.0759909      9.076          9.076          747.62364    
       179   0             -658.1652       124502.54      127892.93      124693.46      120921.22      10058.236      321.03815      3919.3132      9.0759909      9.076          9.076          747.62364    
       180   0             -658.18069      125854.54      129347.88      125878.08      122337.65      10802.651     -399.25748      4175.0021      9.0759909      9.076          9.076          747.62364    
       181   0             -658.19751      125202.31      128893.78      124791.61      121921.55      10695.781      160.68089      4128.0317      9.0759909      9.076          9.076          747.62364    
       182   0             -658.21215      126295.5       130044.58      125906.72      122935.21      9516.0224      507.48305      4278.03        9.0759909      9.076          9.076          747.62364    
       183   0             -658.22932      125849.3       129878.98      124966.08      122702.84      10458.867      495.79202      4153.6496      9.0759909      9.076          9.076          747.62364    
       184   0             -658.24614      126438.6       130512.91      125404.52      123398.37      9412.6294      462.67205      4319.4354      9.0759909      9.076          9.076          747.62364    
       185   0             -658.26407      126562.61      130942.14      125259.77      123485.91      9815.8611      822.13474      4124.2437      9.0759909      9.076          9.076          747.62364    
       186   0             -658.2847       127370         131724.33      125967.79      124417.87      8720.7832      463.86242      4395.4213      9.0759909      9.076          9.076          747.62364    
       187   0             -658.30797      127492.21      132146.95      125821.66      124508.02      8586.6319      759.07803      4181.4942      9.0759909      9.076          9.076          747.62364    
       188   0             -658.33494      128444.39      133059.1       126757.42      125516.64      7634.565       270.52783      4378.9161      9.0759909      9.076          9.076          747.62364    
       189   0             -658.3624       128859.67      133782.8       126895.34      125900.87      7383.6734      817.89496      3985.632       9.0759909      9.076          9.076          747.62364    
       190   0             -658.38853      129601.2       134401.29      127600.5       126801.82      6401.144       393.43305      4394.8184      9.0759909      9.076          9.076          747.62364    
       191   0             -658.41434      130395.26      135423.23      128199.96      127562.59      6202.1395      641.84028      4162.8213      9.0759909      9.076          9.076          747.62364    
       192   0             -658.43996      131116.51      136142.39      128836.69      128370.44      5678.8245      406.31211      4414.3799      9.0759909      9.076          9.076          747.62364    
       193   0             -658.46684      132069.72      137339.81      129604.39      129264.95      5800.1769      799.36327      4130.4363      9.0759909      9.076          9.076          747.62364    
       194   0             -658.49499      132840.88      138048.79      130334.84      130139         5350.0458      436.2792       4609.7982      9.0759909      9.076          9.076          747.62364    
       195   0             -658.52287      133988.68      139529.91      131287.87      131148.25      5855.133       1181.4915      4135.0506      9.0759909      9.076          9.076          747.62364    
       196   0             -658.55091      134715.98      140200.73      131987.57      131959.64      5446.0278      896.53919      4633.0292      9.0759909      9.076          9.076          747.62364    
       197   0             -658.57869      136021.76      141817.26      133141.92      133106.11      5986.8376      1778.9273      4161.5362      9.0759909      9.076          9.076          747.62364    
       198   0             -658.60719      136787.27      142505.09      133883.11      133973.59      5530.4691      1346.2982      4819.2225      9.0759909      9.076          9.076          747.62364    
       199   0             -658.63614      138341.73      144425         135274.97      135325.23      6301.1688      2405.6415      4281.426       9.0759909      9.076          9.076          747.62364    
       200   0             -658.66702      139266.62      145304.46      136124.13      136371.26      6035.5982      1847.8974      5035.2885      9.0759909      9.076          9.076          747.62364    
       201   0             -658.69962      141079.07      147536.15      137735.65      137965.42      7157.5667      3040.3851      4526.8409      9.0759909      9.076          9.076          747.62364    
       202   0             -658.73416      142188.43      148588.59      138726.24      139250.44      7179.2152      2184.7414      5360.9528      9.0759909      9.076          9.076          747.62364    
       203   0             -658.7662       143864.53      150657.5       140209.51      140726.56      8247.2511      3245.8366      5038.6455      9.0759909      9.076          9.076          747.62364    
       204   0             -658.79624      145118.53      151917.39      141362.64      142075.57      8320.7302      2528.3106      5731.076       9.0759909      9.076          9.076          747.62364    
       205   0             -658.82645      146755.67      154114.9       142758.54      143393.57      8867.6107      3859.0998      5311.2529      9.0759909      9.076          9.076          747.62364    
       206   0             -658.85659      147991.83      155339.8       143868.62      144767.07      8001.7251      2348.8262      6372.9946      9.0759909      9.076          9.076          747.62364    
       207   0             -658.88681      149425.52      157454.4       144932.44      145889.73      8056.7719      3493.1958      6056.9865      9.0759909      9.076          9.076          747.62364    
       208   0             -658.91243      150393.03      158400.27      145644.56      147134.28      7341.2758      1983.6316      6830.2715      9.0759909      9.076          9.076          747.62364    
       209   0             -658.9351       151322.27      160031.25      146147.99      147787.57      7460.707       3455.7903      6378.8479      9.0759909      9.076          9.076          747.62364    
       210   0             -658.95555      152288.86      160965.58      146889.94      149011.06      7024.2687      2509.8534      6836.1051      9.0759909      9.076          9.076          747.62364    
       211   0             -658.97173      152633.12      161740.84      146857.31      149301.22      6809.1011      3008.9883      6786.8881      9.0759909      9.076          9.076          747.62364    
       212   0             -658.98564      153740.68      162570.32      147875.88      150775.83      6657.0756      2070.8616      6909.5231      9.0759909      9.076          9.076          747.62364    
       213   0             -659.0013       153865.3       163226.7       147606.46      150762.75      6450.5228      2746.0463      6703.83        9.0759909      9.076          9.076          747.62364    
       214   0             -659.01544      154614.19      163997.08      148154.83      151690.66      6223.3198      2520.0888      6798.2482      9.0759909      9.076          9.076          747.62364    
       215   0             -659.02804      154823.32      164770.42      147968.25      151731.28      6083.2114      2768.5686      6450.0147      9.0759909      9.076          9.076          747.62364    
       216   0             -659.04282      155825.08      165520.57      148910.96      153043.71      5786.2922      2667.2582      6682.5387      9.0759909      9.076          9.076          747.62364    
       217   0             -659.05604      156027.66      166096.05      148789.66      153197.28      5590.4131      2304.1911      6609.0153      9.0759909      9.076          9.076          747.62364    
       218   0             -659.06827      157207.37      167002.6       149950.28      154669.23      5351.4779      3285.5388      6683.264       9.0759909      9.076          9.076          747.62364    
       219   0             -659.08185      157249.38      167456.21      149707.8       154584.13      5122.4224      2562.9735      6381.3092      9.0759909      9.076          9.076          747.62364    
       220   0             -659.09641      158178.33      168286.2       150564.7       155684.09      4873.8739      3232.5963      6311.5279      9.0759909      9.076          9.076          747.62364    
       221   0             -659.10908      158236.82      168593.46      150290.79      155826.22      4330.7293      2328.6458      6037.9632      9.0759909      9.076          9.076          747.62364    
       222   0             -659.12587      159537.77      169998.83      151603.9       157010.59      3829.4911      2379.5659      6148.2705      9.0759909      9.076          9.076          747.62364    
       223   0             -659.14019      161342.47      171554.16      153639.66      158833.59      4285.5256      3508.0414      6104.9175      9.0759909      9.076          9.076          747.62364    
       224   0             -659.157        161732.39      172043.36      153845.34      159308.49      2529.9387      1817.9188      6362.1699      9.0759909      9.076          9.076          747.62364    
       225   0             -659.1707       163020.69      173902.51      155180.33      159979.24      1992.8032      2940.2427      5794.7508      9.0759909      9.076          9.076          747.62364    
       226   0             -659.18682      164615.05      175441.34      156867.11      161536.69      1501.5017      2581.6322      5990.0701      9.0759909      9.076          9.076          747.62364    
       227   0             -659.19593      165018.78      175195.35      157237.98      162623.01      1501.8922      1072.573       6611.7038      9.0759909      9.076          9.076          747.62364    
       228   0             -659.20585      164945.25      175188.06      157242.26      162405.43      1486.636       2344.4528      5696.5567      9.0759909      9.076          9.076          747.62364    
       229   0             -659.22381      166034.65      176135.92      158600.06      163367.95      912.48485      2910.7383      5563.4529      9.0759909      9.076          9.076          747.62364    
       230   0             -659.23412      167591.12      177350.4       160346.66      165076.28      561.49774      1292.4968      6415.0152      9.0759909      9.076          9.076          747.62364    
       231   0             -659.24075      168418.04      178755.82      161197.21      165301.09      1071.3307      1567.5755      5685.8842      9.0759909      9.076          9.076          747.62364    
       232   0             -659.25874      169617.96      180021.17      162279.19      166553.53      1223.5201      1213.2077      5705.4741      9.0759909      9.076          9.076          747.62364    
       233   0             -659.27127      169795.88      179195.04      162905.84      167286.75      553.78682      1055.4507      6795.7292      9.0759909      9.076          9.076          747.62364    
       234   0             -659.28193      169745.2       179016.54      163501         166718.05      1274.6422      2778.1063      6218.5182      9.0759909      9.076          9.076          747.62364    
       235   0             -659.30029      172104.22      181483.05      166337.96      168491.64      3303.6684      2579.9511      5509.4688      9.0759909      9.076          9.076          747.62364    
       236   0             -659.31245      173908.36      182820.84      168171.82      170732.43      2321.2114      409.89347      5827.8046      9.0759909      9.076          9.076          747.62364    
       237   0             -659.32357      175051.1       184477.21      169280.6       171395.49      1398.3615      814.62647      4374.6292      9.0759909      9.076          9.076          747.62364    
       238   0             -659.33709      175606.8       185622.83      169908.78      171288.8       3882.5498      3147.553       3687.0831      9.0759909      9.076          9.076          747.62364    
       239   0             -659.35205      177616.42      186412.26      172683.42      173753.58      5742.4074      2063.6874      4049.8818      9.0759909      9.076          9.076          747.62364    
       240   0             -659.36206      179231.84      187436.17      175082.45      175176.9       4034.8561      1120.0616      3242.3428      9.0759909      9.076          9.076          747.62364    
       241   0             -659.37046      180536.03      189615.83      176780.26      175211.99      2837.9479      2133.7268      1341.2153      9.0759909      9.076          9.076          747.62364    
       242   0             -659.38252      182268.12      191542.84      178612.15      176649.37      3022.594       1358.6196      1146.7608      9.0759909      9.076          9.076          747.62364    
       243   0             -659.3879       182887.84      191304.57      179337.08      178021.86      3614.0933      186.1034       1945.9522      9.0759909      9.076          9.076          747.62364    
       244   0             -659.39168      182995.12      191607.37      179491.01      177886.99      4212.3975      1699.1877      1339.7802      9.0759909      9.076          9.076          747.62364    
       245   0             -659.3978       183469.09      192490.48      179872.99      178043.8       4492.4176      2779.2479      690.40384      9.0759909      9.076          9.076          747.62364    
       246   0             -659.40418      184711.31      193042.51      181326.18      179765.24      4140.5527     -108.99476      1017.8453      9.0759909      9.076          9.076          747.62364    
       247   0             -659.41051      185524.03      193881.48      182528.8       180161.8       3626.3445     -1322.7875      173.05345      9.0759909      9.076          9.076          747.62364    
       248   0             -659.41417      185314.43      194454.85      182459.1       179029.36      3675.0768      1209.4986     -647.42965      9.0759909      9.076          9.076          747.62364    
       249   0             -659.4167       185774.11      194864.21      183116.12      179341.99      3925.0075      2427.0331     -601.70231      9.0759909      9.076          9.076          747.62364    
       250   0             -659.42144      186588.91      194841.67      184205.75      180719.31      3866.617       57.096125     -877.25601      9.0759909      9.076          9.076          747.62364    
       251   0             -659.42795      187143.32      195608.92      185039.84      180781.19      3679.5942     -646.44426     -2205.0739      9.0759909      9.076          9.076          747.62364    
       252   0             -659.43361      187455.75      196580.91      185466.43      180319.91      3962.0087      1266.3233     -2195.9524      9.0759909      9.076          9.076          747.62364    
       253   0             -659.43897      187994.73      196815.53      186238.23      180930.45      4375.2325      1182.4249     -2193.5745      9.0759909      9.076          9.076          747.62364    
       254   0             -659.44552      188342.03      196463.02      186874.51      181688.57      4509.1003     -592.58877     -3090.8705      9.0759909      9.076          9.076          747.62364    
       255   0             -659.4516       189035.64      196998.39      187819.02      182289.51      4680.3994     -712.9504      -4032.395       9.0759909      9.076          9.076          747.62364    
       256   0             -659.45867      189774.54      198386.41      188662.45      182274.77      4990.5497      1447.0053     -3633.3219      9.0759909      9.076          9.076          747.62364    
       257   0             -659.46547      190730.32      199359.64      189977.69      182853.64      5239.4546      1357.0744     -3934.865       9.0759909      9.076          9.076          747.62364    
       258   0             -659.4726       191151.64      199040.33      190714.55      183700.05      5289.1805     -949.58237     -4826.901       9.0759909      9.076          9.076          747.62364    
       259   0             -659.48057      192091.89      199641.51      191992.42      184641.73      5570.4609     -1359.1966     -5418.2841      9.0759909      9.076          9.076          747.62364    
       260   0             -659.48999      193012.61      201264.26      193182.38      184591.17      5972.7053      1342.6684     -5109.9595      9.0759909      9.076          9.076          747.62364    
       261   0             -659.49877      194324.95      202396.99      195034.33      185543.52      6417.1521      1468.5514     -5353.3577      9.0759909      9.076          9.076          747.62364    
       262   0             -659.50864      194865.21      202103.81      195882.1       186609.73      6560.1996     -1034.9072     -6085.6849      9.0759909      9.076          9.076          747.62364    
       263   0             -659.52083      196115.29      203407.65      197591.13      187347.1       6607.5983     -615.67939     -6801.575       9.0759909      9.076          9.076          747.62364    
       264   0             -659.53051      197526.09      204818.87      199621.24      188138.16      6824.8314      923.59964     -5887.3482      9.0759909      9.076          9.076          747.62364    
       265   0             -659.53703      198787.68      205629.75      201497.3       189236         7061.3445      721.57188     -5977.3578      9.0759909      9.076          9.076          747.62364    
       266   0             -659.548        199200.07      205419.42      202161.61      190019.18      7264.1834     -1264.128      -7458.9799      9.0759909      9.076          9.076          747.62364    
       267   0             -659.55147      199668.83      206348.69      202578.42      190079.37      7329.8725      170.94271     -7577.3499      9.0759909      9.076          9.076          747.62364    
       268   0             -659.55609      200564.08      207451.19      203689.58      190551.46      7431.8005      1606.5717     -7334.5917      9.0759909      9.076          9.076          747.62364    
       269   0             -659.56031      201134.41      207097.91      204779.44      191525.87      8001.9996     -489.15812     -8147.2797      9.0759909      9.076          9.076          747.62364    
       270   0             -659.56177      201358.43      207371.21      205076.92      191627.15      8535.5414     -947.60114     -9146.5034      9.0759909      9.076          9.076          747.62364    
       271   0             -659.56305      201623.33      207826.95      205298.83      191744.23      9117.5668     -253.10084     -9533.3769      9.0759909      9.076          9.076          747.62364    
       272   0             -659.56577      201735.08      207706.92      205354.62      192143.71      8973.8951     -246.52552     -9023.7731      9.0759909      9.076          9.076          747.62364    
       273   0             -659.56709      201963.61      207978.71      205473.67      192438.47      8709.8958     -316.99456     -8760.1681      9.0759909      9.076          9.076          747.62364    
       274   0             -659.56858      201897         208314.76      205359.93      192016.3       8874.9426      119.89779     -9261.6272      9.0759909      9.076          9.076          747.62364    
       275   0             -659.57018      201876.38      207916.97      205225.71      192486.44      9160.2762     -274.31526     -8830.9571      9.0759909      9.076          9.076          747.62364    
       276   0             -659.57137      201827.15      207794.73      205040.12      192646.61      9249.9539     -304.18366     -8668.3929      9.0759909      9.076          9.076          747.62364    
       277   0             -659.57215      201847.55      208048.88      205131.61      192362.17      9397.8791      278.3755      -9359.2689      9.0759909      9.076          9.076          747.62364    
       278   0             -659.5736       202231.96      208120.79      205723.65      192851.43      9598.2509     -76.527752     -9566.3708      9.0759909      9.076          9.076          747.62364    
       279   0             -659.57519      202347.56      208352.32      205751.27      192939.09      9603.1258     -794.54473     -9254.8979      9.0759909      9.076          9.076          747.62364    
       280   0             -659.57709      202276.84      208709.46      205453.33      192667.73      10038.378     -364.2089      -9470.1022      9.0759909      9.076          9.076          747.62364    
       281   0             -659.57935      202651.64      208524.21      205835.42      193595.31      10631.464      106.60576     -8933.667       9.0759909      9.076          9.076          747.62364    
       282   0             -659.58262      203135.8       208910.17      206484.84      194012.38      10787.416      376.08703     -8787.3288      9.0759909      9.076          9.076          747.62364    
       283   0             -659.58578      203578.7       210161.62      206970.03      193604.46      10590.065     -757.32253     -9950.177       9.0759909      9.076          9.076          747.62364    
       284   0             -659.58921      204404.28      210751.19      208066.99      194394.65      10817.531     -2023.565      -10605.39       9.0759909      9.076          9.076          747.62364    
       285   0             -659.59359      204824.84      210585.81      208714.56      195174.15      11792.615     -128.89814     -10179.059      9.0759909      9.076          9.076          747.62364    
       286   0             -659.59761      205273.63      211116.37      209008.79      195695.72      12798.462      986.75978     -10319.888      9.0759909      9.076          9.076          747.62364    
       287   0             -659.60246      205743.47      211942.63      209145.8       196141.96      12854.137     -1944.2392     -11020.523      9.0759909      9.076          9.076          747.62364    
       288   0             -659.60692      206302.63      212688.23      209793.82      196425.84      12881.477     -2472.4397     -11291.772      9.0759909      9.076          9.076          747.62364    
       289   0             -659.61066      206724.77      212671.67      210610.34      196892.3       13130.245      52.155581     -10645.715      9.0759909      9.076          9.076          747.62364    
       290   0             -659.61405      207516.72      213296.16      211629.7       197624.29      13286.718      3.5027353     -10796.231      9.0759909      9.076          9.076          747.62364    
       291   0             -659.61887      207978.99      214410.16      211943.59      197583.24      13044.075     -1338.7432     -11676.147      9.0759909      9.076          9.076          747.62364    
       292   0             -659.62162      208058.96      214203.22      212009.96      197963.71      13082.483     -1001.2948     -11166.86       9.0759909      9.076          9.076          747.62364    
       293   0             -659.62404      208083.09      214086.68      211959.71      198202.89      13124.5       -1151.2729     -11077.824      9.0759909      9.076          9.076          747.62364    
       294   0             -659.62564      208374.11      214554.67      212108.09      198459.57      12910.064     -778.19191     -11201.261      9.0759909      9.076          9.076          747.62364    
       295   0             -659.62713      208775.31      214998.88      212559.83      198767.21      12887.52       364.30947     -11335.098      9.0759909      9.076          9.076          747.62364    
       296   0             -659.62825      208874.62      214889.28      212904.18      198830.38      12834.115     -581.54395     -11365.003      9.0759909      9.076          9.076          747.62364    
       297   0             -659.62881      208885.74      214981.22      212931.14      198744.87      12451.404     -1384.6361     -11417.048      9.0759909      9.076          9.076          747.62364    
       298   0             -659.62945      208878.12      214923.83      212943.08      198767.45      12088.298     -789.1544      -11474.71       9.0759909      9.076          9.076          747.62364    
       299   0             -659.6303       208978.23      214861.66      213073.98      198999.07      12357.143     -31.853961     -11322.787      9.0759909      9.076          9.076          747.62364    
       300   0             -659.63064      209133.27      215208.31      213160.22      199031.27      12541.902     -416.20117     -11346.966      9.0759909      9.076          9.076          747.62364    
       301   0             -659.63095      209194.22      215380.3       213246.31      198956.05      12384.601     -552.98197     -11608.93       9.0759909      9.076          9.076          747.62364    
       302   0             -659.63132      209197.34      215167.4       213336.24      199088.39      12220.712     -106.5492      -11544.307      9.0759909      9.076          9.076          747.62364    
       303   0             -659.63161      209238.15      215097.04      213438.04      199179.36      12126.031     -260.88557     -11717.623      9.0759909      9.076          9.076          747.62364    
       304   0             -659.63184      209398.57      215275.79      213556.19      199363.74      12183.705     -370.3745      -11840.918      9.0759909      9.076          9.076          747.62364    
       305   0             -659.63205      209492.65      215500.11      213681.61      199296.23      12159.418     -8.961268      -11891.269      9.0759909      9.076          9.076          747.62364    
       306   0             -659.63224      209616.01      215468.65      213899.7       199479.67      12008.817     -343.86269     -11646.267      9.0759909      9.076          9.076          747.62364    
       307   0             -659.63238      209624.73      215528.74      213899.38      199446.07      11807.471     -201.2529      -11790.953      9.0759909      9.076          9.076          747.62364    
       308   0             -659.6325       209657.27      215468.63      213925.54      199577.63      11738.337      170.56966     -11884.077      9.0759909      9.076          9.076          747.62364    
       309   0             -659.6326       209739.05      215505.86      214066.95      199644.35      11847.348      121.47388     -11973.305      9.0759909      9.076          9.076          747.62364    
       310   0             -659.63266      209841.94      215690.22      214157.77      199677.85      11877.224     -6.3410795     -12014.365      9.0759909      9.076          9.076          747.62364    
       311   0             -659.6327       209866.44      215676.78      214184.03      199738.52      11814.945     -8.0452809     -12052.64       9.0759909      9.076          9.076          747.62364    
       312   0             -659.63275      209792.68      215530.62      214122.46      199724.96      11737.371      78.7147       -12040.486      9.0759909      9.076          9.076          747.62364    
       313   0             -659.63278      209752.45      215487.05      214051.58      199718.73      11728.596      106.97592     -12003.56       9.0759909      9.076          9.076          747.62364    
       314   0             -659.63281      209738.49      215503.78      214027.61      199684.07      11753.7        225.50935     -12047.06       9.0759909      9.076          9.076          747.62364    
       315   0             -659.63283      209759.79      215502.32      214072.5       199704.55      11735.768      202.86012     -12013.888      9.0759909      9.076          9.076          747.62364    
       316   0             -659.63285      209771.8       215525.52      214100.18      199689.72      11676.072      86.308391     -12049.222      9.0759909      9.076          9.076          747.62364    
       317   0             -659.63287      209749.25      215490.94      214059.77      199697.05      11638.248      147.19902     -12102.088      9.0759909      9.076          9.076          747.62364    
       318   0             -659.6329       209681.81      215411.11      213979.07      199655.25      11631.492      308.08989     -12132.208      9.0759909      9.076          9.076          747.62364    
[...]
       462   0             -659.68622      206103.93      212321.21      208517.74      197472.85      4058.3613     -686.05976     -12596.582      9.076          9.076          9.076          747.62439    
       463   0             -659.68622      206103.93      212321.2       208517.73      197472.85      4058.3593     -686.04286     -12596.578      9.076          9.076          9.076          747.62439    
       464   0             -659.68622      206103.92      212321.2       208517.72      197472.84      4058.3581     -686.03631     -12596.592      9.076          9.076          9.076          747.62439    
       465   0             -659.68622      206103.92      212321.19      208517.72      197472.85      4058.3642     -686.04523     -12596.582      9.076          9.076          9.076          747.62439    
       466   0             -659.68622      206103.92      212321.19      208517.72      197472.84      4058.3658     -686.04446     -12596.585      9.076          9.076          9.076          747.62439    
       467   0             -659.68622      206103.91      212321.19      208517.71      197472.84      4058.3629     -686.04603     -12596.59       9.076          9.076          9.076          747.62439    
       468   0             -659.68622      206103.91      212321.19      208517.71      197472.84      4058.3578     -686.04449     -12596.584      9.076          9.076          9.076          747.62439    
       469   0             -659.68622      206103.91      212321.19      208517.71      197472.84      4058.3561     -686.04295     -12596.59       9.076          9.076          9.076          747.62439    
       470   0             -659.68622      206103.92      212321.19      208517.71      197472.84      4058.3584     -686.0473      -12596.587      9.076          9.076          9.076          747.62439    
       471   0             -659.68622      206103.92      212321.19      208517.71      197472.84      4058.3575     -686.04457     -12596.583      9.076          9.076          9.076          747.62439    
       472   0             -659.68622      206103.92      212321.19      208517.71      197472.84      4058.3566     -686.04575     -12596.584      9.076          9.076          9.076          747.62439    
       473   0             -659.68622      206103.92      212321.19      208517.71      197472.84      4058.3582     -686.04743     -12596.58       9.076          9.076          9.076          747.62439    
       474   0             -659.68622      206103.92      212321.19      208517.71      197472.84      4058.3581     -686.04445     -12596.584      9.076          9.076          9.076          747.62439    
       475   0             -659.68622      206103.92      212321.19      208517.72      197472.85      4058.3576     -686.04617     -12596.587      9.076          9.076          9.076          747.62439    
       476   0             -659.68622      206103.92      212321.2       208517.72      197472.85      4058.3569     -686.04809     -12596.583      9.076          9.076          9.076          747.62439    
       477   0             -659.68622      206103.92      212321.2       208517.72      197472.85      4058.3557     -686.04823     -12596.587      9.076          9.076          9.076          747.62439    
       478   0             -659.68622      206103.92      212321.2       208517.72      197472.85      4058.3563     -686.05018     -12596.586      9.076          9.076          9.076          747.62439    
       479   0             -659.68622      206103.92      212321.2       208517.72      197472.85      4058.3562     -686.04807     -12596.584      9.076          9.076          9.076          747.62439    
       480   0             -659.68622      206103.92      212321.2       208517.72      197472.85      4058.3555     -686.05013     -12596.585      9.076          9.076          9.076          747.62439    
       481   0             -659.68622      206103.92      212321.2       208517.72      197472.85      4058.3545     -686.05317     -12596.583      9.076          9.076          9.076          747.62439    
       482   0             -659.68622      206103.92      212321.2       208517.72      197472.85      4058.3535     -686.05291     -12596.586      9.076          9.076          9.076          747.62439    
       483   0             -659.68622      206103.93      212321.2       208517.72      197472.86      4058.355      -686.05429     -12596.584      9.076          9.076          9.076          747.62439    
       484   0             -659.68622      206103.93      212321.2       208517.72      197472.86      4058.3558     -686.05141     -12596.582      9.076          9.076          9.076          747.62439    
       485   0             -659.68622      206103.93      212321.2       208517.72      197472.86      4058.3564     -686.05188     -12596.585      9.076          9.076          9.076          747.62439    
       486   0             -659.68622      206103.93      212321.2       208517.72      197472.86      4058.3579     -686.05434     -12596.583      9.076          9.076          9.076          747.62439    
       487   0             -659.68622      206103.93      212321.2       208517.72      197472.86      4058.3584     -686.05355     -12596.583      9.076          9.076          9.076          747.62439    
       488   0             -659.68622      206103.93      212321.2       208517.72      197472.86      4058.3576     -686.05401     -12596.584      9.076          9.076          9.076          747.62439    
       489   0             -659.68622      206103.93      212321.2       208517.72      197472.86      4058.3583     -686.05458     -12596.583      9.076          9.076          9.076          747.62439    
       490   0             -659.68622      206103.93      212321.2       208517.72      197472.86      4058.3589     -686.05418     -12596.584      9.076          9.076          9.076          747.62439    
       491   0             -659.68622      206103.93      212321.2       208517.72      197472.86      4058.3598     -686.05442     -12596.584      9.076          9.076          9.076          747.62439    
       492   0             -659.68622      206103.93      212321.2       208517.73      197472.86      4058.3599     -686.05295     -12596.583      9.076          9.076          9.076          747.62439    
       493   0             -659.68622      206103.93      212321.2       208517.73      197472.86      4058.3599     -686.05409     -12596.584      9.076          9.076          9.076          747.62439    
       494   0             -659.68622      206103.93      212321.2       208517.73      197472.86      4058.3603     -686.05462     -12596.583      9.076          9.076          9.076          747.62439    
       495   0             -659.68622      206103.93      212321.2       208517.73      197472.87      4058.3603     -686.05357     -12596.584      9.076          9.076          9.076          747.62439    
       496   0             -659.68622      206103.93      212321.21      208517.73      197472.87      4058.3609     -686.05399     -12596.584      9.076          9.076          9.076          747.62439    
       497   0             -659.68622      206103.93      212321.21      208517.73      197472.87      4058.3611     -686.05331     -12596.584      9.076          9.076          9.076          747.62439    
       498   0             -659.68622      206103.93      212321.21      208517.73      197472.87      4058.3609     -686.05316     -12596.584      9.076          9.076          9.076          747.62439    
       499   0             -659.68622      206103.93      212321.21      208517.73      197472.87      4058.361      -686.05377     -12596.584      9.076          9.076          9.076          747.62439    
       500   0             -659.68622      206103.93      212321.21      208517.73      197472.87      4058.3612     -686.05353     -12596.585      9.076          9.076          9.076          747.62439    
       501   0             -659.68622      206103.93      212321.21      208517.73      197472.87      4058.3612     -686.0534      -12596.585      9.076          9.076          9.076          747.62439    
Loop time of 1.10965 on 1 procs for 500 steps with 64 atoms

99.7% CPU use with 1 MPI tasks x no OpenMP threads

Minimization stats:
  Stopping criterion = max iterations
  Energy initial, next-to-last, final = 
     -653.439999864312  -659.686222279584  -659.686222279583
  Force two-norm initial, final = 0.00061932427 1.6817686e-07
  Force max component initial, final = 0.00013502438 4.7356998e-08
  Final line search alpha, max atom move = 1 4.7356998e-08
  Iterations, force evaluations = 500 749

MPI task timing breakdown:
Section |  min time  |  avg time  |  max time  |%varavg| %total
---------------------------------------------------------------
Pair    | 1.0999     | 1.0999     | 1.0999     |   0.0 | 99.12
Neigh   | 0.00091528 | 0.00091528 | 0.00091528 |   0.0 |  0.08
Comm    | 0.0031598  | 0.0031598  | 0.0031598  |   0.0 |  0.28
Output  | 0.0035228  | 0.0035228  | 0.0035228  |   0.0 |  0.32
Modify  | 0          | 0          | 0          |   0.0 |  0.00
Other   |            | 0.00218    |            |       |  0.20

Nlocal:             64 ave          64 max          64 min
Histogram: 1 0 0 0 0 0 0 0 0 0
Nghost:           1267 ave        1267 max        1267 min
Histogram: 1 0 0 0 0 0 0 0 0 0
Neighs:           6829 ave        6829 max        6829 min
Histogram: 1 0 0 0 0 0 0 0 0 0
FullNghs:        13658 ave       13658 max       13658 min
Histogram: 1 0 0 0 0 0 0 0 0 0

Total # of neighbors = 13658
Ave neighs/atom = 213.40625
Neighbor list builds = 2
Dangerous builds = 0

# Obtain new stress tensor

variable tmp equal pe
variable e1 equal ${tmp}
variable e1 equal -659.686222279583
variable tmp equal press
variable p1 equal ${tmp}
variable p1 equal 206103.933152049
variable tmp equal pxx
variable pxx1 equal ${tmp}
variable pxx1 equal 212321.205585099
variable tmp equal pyy
variable pyy1 equal ${tmp}
variable pyy1 equal 208517.726705323
variable tmp equal pzz
variable pzz1 equal ${tmp}
variable pzz1 equal 197472.867165725
variable tmp equal pxy
variable pxy1 equal ${tmp}
variable pxy1 equal 4058.36117198902
variable tmp equal pxz
variable pxz1 equal ${tmp}
variable pxz1 equal -686.053400342292
variable tmp equal pyz
variable pyz1 equal ${tmp}
variable pyz1 equal -12596.5846099757

# Compute elastic constant from pressure tensor

variable C1pos equal ${d1}
variable C1pos equal -21232120.5585148
variable C2pos equal ${d2}
variable C2pos equal -20851772.6705372
variable C3pos equal ${d3}
variable C3pos equal -19747286.7165774
variable C4pos equal ${d4}
variable C4pos equal 1259658.46099757
variable C5pos equal ${d5}
variable C5pos equal 68605.3400342292
variable C6pos equal ${d6}
variable C6pos equal -405836.117198902

# Combine positive and negative

variable C1${dir} equal 0.5*(${C1neg}+${C1pos})
variable C16 equal 0.5*(${C1neg}+${C1pos})
variable C16 equal 0.5*(21232124.6306358+${C1pos})
variable C16 equal 0.5*(21232124.6306358+-21232120.5585148)
variable C2${dir} equal 0.5*(${C2neg}+${C2pos})
variable C26 equal 0.5*(${C2neg}+${C2pos})
variable C26 equal 0.5*(20851773.0039871+${C2pos})
variable C26 equal 0.5*(20851773.0039871+-20851772.6705372)
variable C3${dir} equal 0.5*(${C3neg}+${C3pos})
variable C36 equal 0.5*(${C3neg}+${C3pos})
variable C36 equal 0.5*(19747256.5932598+${C3pos})
variable C36 equal 0.5*(19747256.5932598+-19747286.7165774)
variable C4${dir} equal 0.5*(${C4neg}+${C4pos})
variable C46 equal 0.5*(${C4neg}+${C4pos})
variable C46 equal 0.5*(-1259669.28583707+${C4pos})
variable C46 equal 0.5*(-1259669.28583707+1259658.46099757)
variable C5${dir} equal 0.5*(${C5neg}+${C5pos})
variable C56 equal 0.5*(${C5neg}+${C5pos})
variable C56 equal 0.5*(-68576.7728454977+${C5pos})
variable C56 equal 0.5*(-68576.7728454977+68605.3400342292)
variable C6${dir} equal 0.5*(${C6neg}+${C6pos})
variable C66 equal 0.5*(${C6neg}+${C6pos})
variable C66 equal 0.5*(405998.037202571+${C6pos})
variable C66 equal 0.5*(405998.037202571+-405836.117198902)

# Delete dir to make sure it is not reused

variable dir delete

# Output final values

variable C11all equal ${C11}
variable C11all equal 328.506440648809
variable C22all equal ${C22}
variable C22all equal 320.474394399673
variable C33all equal ${C33}
variable C33all equal 300.247632399201

variable C12all equal 0.5*(${C12}+${C21})
variable C12all equal 0.5*(171.496431900188+${C21})
variable C12all equal 0.5*(171.496431900188+171.394385099411)
variable C13all equal 0.5*(${C13}+${C31})
variable C13all equal 0.5*(155.862308699638+${C31})
variable C13all equal 0.5*(155.862308699638+155.075637349859)
variable C23all equal 0.5*(${C23}+${C32})
variable C23all equal 0.5*(148.236091200262+${C32})
variable C23all equal 0.5*(148.236091200262+147.090146400034)

variable C44all equal ${C44}
variable C44all equal 94.9536004400579
variable C55all equal ${C55}
variable C55all equal 43.799076604897
variable C66all equal ${C66}
variable C66all equal 80.9600018344936

variable C14all equal 0.5*(${C14}+${C41})
variable C14all equal 0.5*(2.51744964905083+${C41})
variable C14all equal 0.5*(2.51744964905083+1.27266946504824)
variable C15all equal 0.5*(${C15}+${C51})
variable C15all equal 0.5*(-3.1319788005203+${C51})
variable C15all equal 0.5*(-3.1319788005203+-3.27099272999476)
variable C16all equal 0.5*(${C16}+${C61})
variable C16all equal 0.5*(2.03606050089002+${C61})
variable C16all equal 0.5*(2.03606050089002+3.56824366300134)

variable C24all equal 0.5*(${C24}+${C42})
variable C24all equal 0.5*(0.650942500680685+${C42})
variable C24all equal 0.5*(0.650942500680685+-1.86274013505317)
variable C25all equal 0.5*(${C25}+${C52})
variable C25all equal 0.5*(-5.87662729993463+${C52})
variable C25all equal 0.5*(-5.87662729993463+-5.94341925034678)
variable C26all equal 0.5*(${C26}+${C62})
variable C26all equal 0.5*(0.16672495007515+${C62})
variable C26all equal 0.5*(0.16672495007515+0.407178280496737)

variable C34all equal 0.5*(${C34}+${C43})
variable C34all equal 0.5*(-4.54877294972539+${C43})
variable C34all equal 0.5*(-4.54877294972539+-4.58809016493615)
variable C35all equal 0.5*(${C35}+${C53})
variable C35all equal 0.5*(9.74804585054517+${C53})
variable C35all equal 0.5*(9.74804585054517+9.56093642894848)
variable C36all equal 0.5*(${C36}+${C63})
variable C36all equal 0.5*(-15.0616587996483+${C63})
variable C36all equal 0.5*(-15.0616587996483+-13.8849826219957)

variable C45all equal 0.5*(${C45}+${C54})
variable C45all equal 0.5*(7.8390966799343+${C54})
variable C45all equal 0.5*(7.8390966799343+7.80317435250618)
variable C46all equal 0.5*(${C46}+${C64})
variable C46all equal 0.5*(-5.41241975000594+${C64})
variable C46all equal 0.5*(-5.41241975000594+-5.27062675001798)
variable C56all equal 0.5*(${C56}+${C65})
variable C56all equal 0.5*(14.2835943657483+${C65})
variable C56all equal 0.5*(14.2835943657483+14.138457646477)

# Average moduli for cubic crystals

variable C11cubic equal (${C11all}+${C22all}+${C33all})/3.0
variable C11cubic equal (328.506440648809+${C22all}+${C33all})/3.0
variable C11cubic equal (328.506440648809+320.474394399673+${C33all})/3.0
variable C11cubic equal (328.506440648809+320.474394399673+300.247632399201)/3.0
variable C12cubic equal (${C12all}+${C13all}+${C23all})/3.0
variable C12cubic equal (171.445408499799+${C13all}+${C23all})/3.0
variable C12cubic equal (171.445408499799+155.468973024748+${C23all})/3.0
variable C12cubic equal (171.445408499799+155.468973024748+147.663118800148)/3.0
variable C44cubic equal (${C44all}+${C55all}+${C66all})/3.0
variable C44cubic equal (94.9536004400579+${C55all}+${C66all})/3.0
variable C44cubic equal (94.9536004400579+43.799076604897+${C66all})/3.0
variable C44cubic equal (94.9536004400579+43.799076604897+80.9600018344936)/3.0

variable bulkmodulus equal (${C11cubic}+2*${C12cubic})/3.0
variable bulkmodulus equal (316.409489149228+2*${C12cubic})/3.0
variable bulkmodulus equal (316.409489149228+2*158.192500108232)/3.0
variable shearmodulus1 equal ${C44cubic}
variable shearmodulus1 equal 73.2375596264828
variable shearmodulus2 equal (${C11cubic}-${C12cubic})/2.0
variable shearmodulus2 equal (316.409489149228-${C12cubic})/2.0
variable shearmodulus2 equal (316.409489149228-158.192500108232)/2.0
variable poissonratio equal 1.0/(1.0+${C11cubic}/${C12cubic})
variable poissonratio equal 1.0/(1.0+316.409489149228/${C12cubic})
variable poissonratio equal 1.0/(1.0+316.409489149228/158.192500108232)

# For Stillinger-Weber silicon, the analytical results
# are known to be (E. R. Cowley, 1988):
#               C11 = 151.4 GPa
#               C12 = 76.4 GPa
#               C44 = 56.4 GPa

print "========================================="
=========================================
print "Components of the Elastic Constant Tensor"
Components of the Elastic Constant Tensor
print "========================================="
=========================================

print "Elastic Constant C11all = ${C11all} ${cunits}"
Elastic Constant C11all = 328.506440648809 GPa
print "Elastic Constant C22all = ${C22all} ${cunits}"
Elastic Constant C22all = 320.474394399673 GPa
print "Elastic Constant C33all = ${C33all} ${cunits}"
Elastic Constant C33all = 300.247632399201 GPa

print "Elastic Constant C12all = ${C12all} ${cunits}"
Elastic Constant C12all = 171.445408499799 GPa
print "Elastic Constant C13all = ${C13all} ${cunits}"
Elastic Constant C13all = 155.468973024748 GPa
print "Elastic Constant C23all = ${C23all} ${cunits}"
Elastic Constant C23all = 147.663118800148 GPa

print "Elastic Constant C44all = ${C44all} ${cunits}"
Elastic Constant C44all = 94.9536004400579 GPa
print "Elastic Constant C55all = ${C55all} ${cunits}"
Elastic Constant C55all = 43.799076604897 GPa
print "Elastic Constant C66all = ${C66all} ${cunits}"
Elastic Constant C66all = 80.9600018344936 GPa

print "Elastic Constant C14all = ${C14all} ${cunits}"
Elastic Constant C14all = 1.89505955704953 GPa
print "Elastic Constant C15all = ${C15all} ${cunits}"
Elastic Constant C15all = -3.20148576525753 GPa
print "Elastic Constant C16all = ${C16all} ${cunits}"
Elastic Constant C16all = 2.80215208194568 GPa

print "Elastic Constant C24all = ${C24all} ${cunits}"
Elastic Constant C24all = -0.605898817186242 GPa
print "Elastic Constant C25all = ${C25all} ${cunits}"
Elastic Constant C25all = -5.91002327514071 GPa
print "Elastic Constant C26all = ${C26all} ${cunits}"
Elastic Constant C26all = 0.286951615285943 GPa

print "Elastic Constant C34all = ${C34all} ${cunits}"
Elastic Constant C34all = -4.56843155733077 GPa
print "Elastic Constant C35all = ${C35all} ${cunits}"
Elastic Constant C35all = 9.65449113974682 GPa
print "Elastic Constant C36all = ${C36all} ${cunits}"
Elastic Constant C36all = -14.473320710822 GPa

print "Elastic Constant C45all = ${C45all} ${cunits}"
Elastic Constant C45all = 7.82113551622024 GPa
print "Elastic Constant C46all = ${C46all} ${cunits}"
Elastic Constant C46all = -5.34152325001196 GPa
print "Elastic Constant C56all = ${C56all} ${cunits}"
Elastic Constant C56all = 14.2110260061127 GPa

print "========================================="
=========================================
print "Average properties for a cubic crystal"
Average properties for a cubic crystal
print "========================================="
=========================================

print "Bulk Modulus = ${bulkmodulus} ${cunits}"
Bulk Modulus = 210.931496455231 GPa
print "Shear Modulus 1 = ${shearmodulus1} ${cunits}"
Shear Modulus 1 = 73.2375596264828 GPa
print "Shear Modulus 2 = ${shearmodulus2} ${cunits}"
Shear Modulus 2 = 79.108494520498 GPa
print "Poisson Ratio = ${poissonratio}"
Poisson Ratio = 0.333316133705492
variable length equal "lx"
print "Lattice constant (Angstroms) = ${length};"
Lattice constant (Angstroms) = 9.07599999684796;
Total wall time: 0:00:13
